<?xml version="1.0" encoding="UTF-8"?>

<!-- generated on 2024-07-09 12:04:36 by Eclipse SUMO sumo Version 1.19.0
<configuration xmlns:xsi="http://www.w3.org/2001/XMLSchema-instance" xsi:noNamespaceSchemaLocation="http://sumo.dlr.de/xsd/sumoConfiguration.xsd">

    <input>
        <net-file value="sumo_network/example42.net.xml"/>
        <route-files value="sumo_network/example42.rou.xml,sumo_network/bus.rou.xml,sumo_network/pedestrian.rou.xml"/>
        <additional-files value="sumo_network/busstops_def.add.xml,sumo_network/det_e3.add.xml,sumo_network/det_e2.add.xml,sumo_network/edgelane_dump.add.xml,sumo_network/signal-timing-dial.xml"/>
    </input>

    <output>
        <write-license value="false"/>
        <output-prefix value="OUTPUT-"/>
        <precision value="2"/>
        <human-readable-time value="false"/>
        <emission-output value="sumo_network/output/data_emission.xml"/>
        <emission-output.precision value="2"/>
        <queue-output value="sumo_network/output/data_Queue.xml"/>
        <queue-output.period value="300"/>
        <summary-output value="sumo_network/output/data_summary.xml"/>
        <summary-output.period value="300"/>
        <person-summary-output value="sumo_network/output/data_person_summary.xml"/>
        <personinfo-output value="sumo_network/output/data_personinfo.xml"/>
        <collision-output value="sumo_network/output/data_collision.xml"/>
        <edgedata-output value="sumo_network/output/data_edges.xml"/>
        <lanedata-output value="sumo_network/output/data_lanes.xml"/>
        <statistic-output value="sumo_network/output/data_statistic.xml"/>
    </output>

    <time>
        <begin value="0"/>
        <end value="3600"/>
        <step-length value="1"/>
    </time>

    <processing>
        <no-internal-links value="false"/>
        <ignore-route-errors value="true"/>
        <collision.action value="teleport"/>
        <intermodal-collision.action value="warn"/>
        <collision.stoptime value="0"/>
        <intermodal-collision.stoptime value="0"/>
        <collision.check-junctions value="false"/>
        <max-num-vehicles value="-1"/>
        <max-num-teleports value="-1"/>
        <time-to-teleport value="300"/>
        <time-to-teleport.remove value="false"/>
        <waiting-time-memory value="100"/>
        <max-depart-delay value="-1"/>
        <random-depart-offset value="0"/>
        <lanechange.duration value="0"/>
        <lanechange.overtake-right value="false"/>
        <tls.all-off value="false"/>
        <tls.yellow.min-decel value="3"/>
    </processing>

    <routing>
        <routing-algorithm value="dijkstra"/>
    </routing>

    <report>
        <verbose value="true"/>
        <no-warnings value="true"/>
        <log value="sumo_network/output/data_log.xml"/>
        <no-step-log value="true"/>
        <step-log.period value="300"/>
    </report>

    <emissions>
        <device.emissions.period value="300"/>
    </emissions>

    <traci_server>
        <remote-port value="8813"/>
    </traci_server>

    <mesoscopic>
        <mesosim value="false"/>
    </mesoscopic>

    <random_number>
        <random value="false"/>
        <seed value="23423"/>
    </random_number>

    <gui_only>
        <gui-settings-file value="sumo_network/viewsettings.xml"/>
        <start value="true"/>
        <demo value="false"/>
        <window-size value="800,600"/>
        <window-pos value="100,100"/>
    </gui_only>

</configuration>
-->

<emission-export xmlns:xsi="http://www.w3.org/2001/XMLSchema-instance" xsi:noNamespaceSchemaLocation="http://sumo.dlr.de/xsd/emission_file.xsd">
    <timestep time="0.00">
        <vehicle id="down2up_211.0" eclass="HBEFA3/Bus" CO2="5286.11" CO="20.17" HC="4.85" NOx="60.75" PMx="2.01" fuel="1671.11" electricity="0.00" noise="67.11" route="rt_DOWN2UP" type="BUS_A" waiting="0.00" lane="-E7_1" pos="12.10" speed="0.00" angle="360.00" x="410.25" y="-191.54"/>
        <vehicle id="feitianlu_north_T1.0" eclass="HBEFA3/PC_G_EU4" CO2="2624.72" CO="164.78" HC="0.81" NOx="1.20" PMx="0.07" fuel="837.22" electricity="0.00" noise="55.94" route="!feitianlu_north_T1.0" type="vt_car" waiting="0.00" lane="-E9_2" pos="5.10" speed="0.00" angle="180.02" x="402.32" y="202.61"/>
        <vehicle id="feitianlu_south_T1.0" eclass="HBEFA3/PC_G_EU4" CO2="2624.72" CO="164.78" HC="0.81" NOx="1.20" PMx="0.07" fuel="837.22" electricity="0.00" noise="55.94" route="!feitianlu_south_T1.0" type="vt_car" waiting="0.00" lane="-E7_2" pos="5.10" speed="0.00" angle="360.00" x="406.25" y="-198.54"/>
        <vehicle id="fukanglu_north_T1.0" eclass="HBEFA3/PC_G_EU4" CO2="2624.72" CO="164.78" HC="0.81" NOx="1.20" PMx="0.07" fuel="837.22" electricity="0.00" noise="55.94" route="!fukanglu_north_T1.0" type="vt_car" waiting="0.00" lane="-E6_1" pos="5.10" speed="0.00" angle="180.04" x="-8.35" y="199.74"/>
        <vehicle id="fukanglu_south_T1.0" eclass="HBEFA3/PC_G_EU4" CO2="2624.72" CO="164.78" HC="0.81" NOx="1.20" PMx="0.07" fuel="837.22" electricity="0.00" noise="55.94" route="!fukanglu_south_T1.0" type="vt_car" waiting="0.00" lane="-E4_2" pos="5.10" speed="0.00" angle="359.98" x="7.57" y="-195.43"/>
        <vehicle id="up2down_211.0" eclass="HBEFA3/Bus" CO2="5286.11" CO="20.17" HC="4.85" NOx="60.75" PMx="2.01" fuel="1671.11" electricity="0.00" noise="67.11" route="rt_UP2DOWN" type="BUS_B" waiting="0.00" lane="-E3_1" pos="12.10" speed="0.00" angle="180.02" x="-407.06" y="190.50"/>
        <vehicle id="w2e_106.0" eclass="HBEFA3/Bus" CO2="5286.11" CO="20.17" HC="4.85" NOx="60.75" PMx="2.01" fuel="1671.11" electricity="0.00" noise="67.11" route="rt_W2E" type="BUS_A" waiting="0.00" lane="E0_1" pos="12.10" speed="0.00" angle="90.00" x="-767.75" y="-9.09"/>
        <vehicle id="xingminlu_north_T1.0" eclass="HBEFA3/PC_G_EU4" CO2="2624.72" CO="164.78" HC="0.81" NOx="1.20" PMx="0.07" fuel="837.22" electricity="0.00" noise="55.94" route="!xingminlu_north_T1.0" type="vt_car" waiting="0.00" lane="-E3_2" pos="5.10" speed="0.00" angle="180.02" x="-403.06" y="197.50"/>
        <vehicle id="xingminlu_south_T1.0" eclass="HBEFA3/PC_G_EU4" CO2="2624.72" CO="164.78" HC="0.81" NOx="1.20" PMx="0.07" fuel="837.22" electricity="0.00" noise="55.94" route="!xingminlu_south_T1.0" type="vt_car" waiting="0.00" lane="-E1_1" pos="5.10" speed="0.00" angle="359.99" x="-395.09" y="-198.05"/>
        <vehicle id="yuanlinlu_east_T1.0" eclass="HBEFA3/PC_G_EU4" CO2="2624.72" CO="164.78" HC="0.81" NOx="1.20" PMx="0.07" fuel="837.22" electricity="0.00" noise="55.94" route="!yuanlinlu_east_T1.0" type="vt_car" waiting="0.00" lane="E0_2" pos="5.10" speed="0.00" angle="90.00" x="-774.75" y="-5.09"/>
        <vehicle id="yuanlinlu_west_T1.0" eclass="HBEFA3/PC_G_EU4" CO2="2624.72" CO="164.78" HC="0.81" NOx="1.20" PMx="0.07" fuel="837.22" electricity="0.00" noise="55.94" route="!yuanlinlu_west_T1.0" type="vt_car" waiting="0.00" lane="-E8_1" pos="5.10" speed="0.00" angle="270.03" x="741.78" y="10.69"/>
    </timestep>
    <timestep time="300.00">
        <vehicle id="down2up_211.0" eclass="HBEFA3/Bus" CO2="5287.27" CO="20.17" HC="4.85" NOx="60.76" PMx="2.01" fuel="1671.48" electricity="0.00" noise="66.84" route="rt_DOWN2UP" type="BUS_A" waiting="3.00" lane="-E5_2" pos="363.71" speed="0.00" angle="269.98" x="23.53" y="6.74"/>
        <vehicle id="e2w_106.0" eclass="HBEFA3/Bus" CO2="13115.42" CO="25.83" HC="5.84" NOx="109.82" PMx="2.71" fuel="4149.84" electricity="0.00" noise="72.43" route="rt_E2W" type="BUS_B" waiting="0.00" lane="-E5_1" pos="130.63" speed="6.93" angle="269.98" x="256.60" y="10.83"/>
        <vehicle id="feitianlu_north_T1.13" eclass="HBEFA3/PC_G_EU4" CO2="2624.72" CO="164.78" HC="0.81" NOx="1.20" PMx="0.07" fuel="837.22" electricity="0.00" noise="55.94" route="!feitianlu_north_T1.13" type="vt_car" waiting="22.00" lane="-E9_2" pos="184.82" speed="0.00" angle="180.02" x="402.25" y="22.89"/>
        <vehicle id="feitianlu_north_T1.14" eclass="HBEFA3/PC_G_EU4" CO2="2623.87" CO="164.65" HC="0.81" NOx="1.20" PMx="0.07" fuel="836.95" electricity="0.00" noise="55.74" route="!feitianlu_north_T1.14" type="vt_car" waiting="2.00" lane="-E9_2" pos="177.31" speed="0.01" angle="180.02" x="402.25" y="30.40"/>
        <vehicle id="feitianlu_north_T1.15" eclass="HBEFA3/PC_G_EU4" CO2="2624.72" CO="164.78" HC="0.81" NOx="1.20" PMx="0.07" fuel="837.22" electricity="0.00" noise="55.94" route="!feitianlu_north_T1.15" type="vt_car" waiting="0.00" lane="-E9_2" pos="5.10" speed="0.00" angle="180.02" x="402.32" y="202.61"/>
        <vehicle id="feitianlu_north_T1.9" eclass="HBEFA3/PC_G_EU4" CO2="2591.76" CO="161.24" HC="0.79" NOx="1.18" PMx="0.06" fuel="826.71" electricity="0.00" noise="54.74" route="!feitianlu_north_T1.9" type="vt_car" waiting="0.00" lane="-E5_2" pos="349.10" speed="0.16" angle="269.98" x="38.14" y="6.75"/>
        <vehicle id="feitianlu_south_T1.12" eclass="HBEFA3/PC_G_EU4" CO2="4380.23" CO="48.26" HC="0.32" NOx="1.71" PMx="0.07" fuel="1397.09" electricity="0.00" noise="65.31" route="!feitianlu_south_T1.12" type="vt_car" waiting="0.00" lane="E8_1" pos="108.71" speed="12.09" angle="90.03" x="529.95" y="-9.18"/>
        <vehicle id="feitianlu_south_T1.13" eclass="HBEFA3/PC_G_EU4" CO2="8688.54" CO="124.99" HC="0.78" NOx="3.70" PMx="0.18" fuel="2771.21" electricity="0.00" noise="70.11" route="!feitianlu_south_T1.13" type="vt_car" waiting="0.00" lane="-E7_1" pos="59.60" speed="13.84" angle="360.00" x="410.25" y="-144.04"/>
        <vehicle id="fukanglu_north_T1.15" eclass="HBEFA3/PC_G_EU4" CO2="1409.25" CO="0.00" HC="0.00" NOx="0.33" PMx="0.00" fuel="449.51" electricity="0.00" noise="62.20" route="!fukanglu_north_T1.15" type="vt_car" waiting="0.00" lane="E7_2" pos="148.40" speed="11.48" angle="180.00" x="402.25" y="-168.52"/>
        <vehicle id="fukanglu_north_T1.16" eclass="HBEFA3/PC_G_EU4" CO2="1632.16" CO="0.00" HC="0.01" NOx="0.43" PMx="0.00" fuel="520.60" electricity="0.00" noise="62.55" route="!fukanglu_north_T1.16" type="vt_car" waiting="0.00" lane="E8_2" pos="37.23" speed="11.70" angle="90.03" x="458.48" y="-5.14"/>
        <vehicle id="fukanglu_north_T1.17" eclass="HBEFA3/PC_G_EU4" CO2="2934.62" CO="32.15" HC="0.21" NOx="1.07" PMx="0.03" fuel="936.02" electricity="0.00" noise="62.99" route="!fukanglu_north_T1.17" type="vt_car" waiting="0.00" lane="-E2_3" pos="232.00" speed="10.44" angle="270.03" x="-251.49" y="2.84"/>
        <vehicle id="fukanglu_north_T1.18" eclass="HBEFA3/PC_G_EU4" CO2="2624.72" CO="164.78" HC="0.81" NOx="1.20" PMx="0.07" fuel="837.22" electricity="0.00" noise="55.94" route="!fukanglu_north_T1.18" type="vt_car" waiting="10.00" lane="-E6_3" pos="182.08" speed="0.00" angle="180.04" x="-0.48" y="22.75"/>
        <vehicle id="fukanglu_north_T1.19" eclass="HBEFA3/HDV" CO2="0.00" CO="0.00" HC="0.00" NOx="0.00" PMx="0.00" fuel="0.00" electricity="0.00" noise="69.69" route="!fukanglu_north_T1.19" type="vt_truck" waiting="0.00" lane="-E6_1" pos="142.72" speed="9.95" angle="180.04" x="-8.45" y="62.12"/>
        <vehicle id="fukanglu_north_T1.20" eclass="HBEFA3/PC_G_EU4" CO2="2624.72" CO="164.78" HC="0.81" NOx="1.20" PMx="0.07" fuel="837.22" electricity="0.00" noise="55.94" route="!fukanglu_north_T1.20" type="vt_car" waiting="0.00" lane="-E6_3" pos="5.10" speed="0.00" angle="180.04" x="-0.35" y="199.73"/>
        <vehicle id="fukanglu_south_T1.10" eclass="HBEFA3/PC_G_EU4" CO2="3031.24" CO="15.37" HC="0.14" NOx="1.06" PMx="0.03" fuel="966.84" electricity="0.00" noise="64.40" route="!fukanglu_south_T1.10" type="vt_car" waiting="0.00" lane="E8_1" pos="287.09" speed="12.80" angle="90.03" x="708.33" y="-9.29"/>
        <vehicle id="fukanglu_south_T1.11" eclass="HBEFA3/PC_G_EU4" CO2="2624.72" CO="164.78" HC="0.81" NOx="1.20" PMx="0.07" fuel="837.22" electricity="0.00" noise="55.94" route="!fukanglu_south_T1.11" type="vt_car" waiting="33.00" lane="-E4_3" pos="179.26" speed="0.00" angle="359.98" x="3.52" y="-21.27"/>
        <vehicle id="fukanglu_south_T1.12" eclass="HBEFA3/PC_G_EU4" CO2="0.00" CO="0.00" HC="0.00" NOx="0.00" PMx="0.00" fuel="0.00" electricity="0.00" noise="61.43" route="!fukanglu_south_T1.12" type="vt_car" waiting="0.00" lane="E5_1" pos="88.93" speed="11.02" angle="89.98" x="111.46" y="-9.23"/>
        <vehicle id="fukanglu_south_T1.13" eclass="HBEFA3/PC_G_EU4" CO2="0.00" CO="0.00" HC="0.00" NOx="0.00" PMx="0.00" fuel="0.00" electricity="0.00" noise="62.17" route="!fukanglu_south_T1.13" type="vt_car" waiting="0.00" lane="-E4_2" pos="63.84" speed="11.68" angle="359.98" x="7.55" y="-136.69"/>
        <vehicle id="up2down_211.0" eclass="HBEFA3/Bus" CO2="9093.93" CO="21.33" HC="5.32" NOx="81.45" PMx="2.23" fuel="2877.20" electricity="0.00" noise="70.72" route="rt_UP2DOWN" type="BUS_B" waiting="0.00" lane="E7_1" pos="117.57" speed="6.62" angle="180.00" x="398.25" y="-137.69"/>
        <vehicle id="w2e_106.0" eclass="HBEFA3/Bus" CO2="13200.23" CO="25.06" HC="5.84" NOx="108.69" PMx="2.66" fuel="4176.98" electricity="0.00" noise="72.97" route="rt_W2E" type="BUS_A" waiting="0.00" lane="E2_2" pos="240.52" speed="8.71" angle="90.03" x="-143.59" y="-5.21"/>
        <vehicle id="xingminlu_north_T1.3" eclass="HBEFA3/PC_G_EU4" CO2="8342.24" CO="149.83" HC="0.88" NOx="3.64" PMx="0.18" fuel="2660.77" electricity="0.00" noise="70.89" route="!xingminlu_north_T1.3" type="vt_car" waiting="0.00" lane=":J3_19_0" pos="27.36" speed="9.75" angle="29.11" x="2.14" y="12.10"/>
        <vehicle id="xingminlu_north_T1.5" eclass="HBEFA3/PC_G_EU4" CO2="1540.20" CO="11.70" HC="0.08" NOx="0.44" PMx="0.00" fuel="491.28" electricity="0.00" noise="60.79" route="!xingminlu_north_T1.5" type="vt_car" waiting="0.00" lane="E5_2" pos="26.73" speed="9.56" angle="89.98" x="49.26" y="-5.25"/>
        <vehicle id="xingminlu_north_T1.6" eclass="HBEFA3/PC_G_EU4" CO2="2624.72" CO="164.78" HC="0.81" NOx="1.20" PMx="0.07" fuel="837.22" electricity="0.00" noise="55.94" route="!xingminlu_north_T1.6" type="vt_car" waiting="25.00" lane="-E3_2" pos="179.69" speed="0.00" angle="180.02" x="-403.11" y="22.91"/>
        <vehicle id="xingminlu_north_T1.7" eclass="HBEFA3/PC_G_EU4" CO2="2624.72" CO="164.78" HC="0.81" NOx="1.20" PMx="0.07" fuel="837.22" electricity="0.00" noise="55.94" route="!xingminlu_north_T1.7" type="vt_car" waiting="0.00" lane="-E3_2" pos="5.10" speed="0.00" angle="180.02" x="-403.06" y="197.50"/>
        <vehicle id="xingminlu_south_T1.11" eclass="HBEFA3/PC_G_EU4" CO2="2624.72" CO="164.78" HC="0.81" NOx="1.20" PMx="0.07" fuel="837.22" electricity="0.00" noise="55.94" route="!xingminlu_south_T1.11" type="vt_car" waiting="48.00" lane="-E1_2" pos="182.05" speed="0.00" angle="359.99" x="-399.12" y="-21.10"/>
        <vehicle id="xingminlu_south_T1.12" eclass="HBEFA3/HDV" CO2="7380.56" CO="15.20" HC="0.00" NOx="84.89" PMx="2.21" fuel="2321.67" electricity="0.00" noise="67.11" route="!xingminlu_south_T1.12" type="vt_truck" waiting="32.00" lane="-E1_2" pos="174.55" speed="0.00" angle="359.99" x="-399.12" y="-28.60"/>
        <vehicle id="xingminlu_south_T1.13" eclass="HBEFA3/PC_G_EU4" CO2="2624.72" CO="164.78" HC="0.81" NOx="1.20" PMx="0.07" fuel="837.22" electricity="0.00" noise="55.94" route="!xingminlu_south_T1.13" type="vt_car" waiting="18.00" lane="-E1_2" pos="164.95" speed="0.00" angle="359.99" x="-399.12" y="-38.20"/>
        <vehicle id="xingminlu_south_T1.14" eclass="HBEFA3/PC_G_EU4" CO2="2837.30" CO="5.06" HC="0.09" NOx="0.94" PMx="0.02" fuel="904.98" electricity="0.00" noise="64.82" route="!xingminlu_south_T1.14" type="vt_car" waiting="0.00" lane="-E1_1" pos="136.79" speed="13.76" angle="359.99" x="-395.11" y="-66.36"/>
        <vehicle id="xingminlu_south_T1.6" eclass="HBEFA3/PC_G_EU4" CO2="2850.45" CO="13.77" HC="0.13" NOx="0.98" PMx="0.03" fuel="909.17" electricity="0.00" noise="64.08" route="!xingminlu_south_T1.6" type="vt_car" waiting="0.00" lane="E5_2" pos="280.60" speed="12.50" angle="89.98" x="303.13" y="-5.15"/>
        <vehicle id="yuanlinlu_east_T1.0" eclass="HBEFA3/PC_G_EU4" CO2="0.00" CO="0.00" HC="0.00" NOx="0.00" PMx="0.00" fuel="0.00" electricity="0.00" noise="63.03" route="!yuanlinlu_east_T1.0" type="vt_car" waiting="0.00" lane="E5_2" pos="326.73" speed="13.36" angle="89.98" x="349.26" y="-5.13"/>
        <vehicle id="yuanlinlu_east_T1.100" eclass="HBEFA3/PC_G_EU4" CO2="2624.72" CO="164.78" HC="0.81" NOx="1.20" PMx="0.07" fuel="837.22" electricity="0.00" noise="55.94" route="!yuanlinlu_east_T1.100" type="vt_car" waiting="0.00" lane="E0_2" pos="5.10" speed="0.00" angle="90.00" x="-774.75" y="-5.09"/>
        <vehicle id="yuanlinlu_east_T1.12" eclass="HBEFA3/PC_G_EU4" CO2="2586.77" CO="0.00" HC="0.05" NOx="0.82" PMx="0.02" fuel="825.07" electricity="0.00" noise="64.74" route="!yuanlinlu_east_T1.12" type="vt_car" waiting="0.00" lane="E5_2" pos="155.84" speed="13.90" angle="89.98" x="178.37" y="-5.20"/>
        <vehicle id="yuanlinlu_east_T1.13" eclass="HBEFA3/PC_G_EU4" CO2="3932.49" CO="24.88" HC="0.20" NOx="1.45" PMx="0.05" fuel="1254.28" electricity="0.00" noise="65.85" route="!yuanlinlu_east_T1.13" type="vt_car" waiting="0.00" lane="E5_2" pos="132.65" speed="14.21" angle="89.98" x="155.18" y="-5.21"/>
        <vehicle id="yuanlinlu_east_T1.14" eclass="HBEFA3/PC_G_EU4" CO2="6307.47" CO="75.27" HC="0.49" NOx="2.57" PMx="0.12" fuel="2011.78" electricity="0.00" noise="67.75" route="!yuanlinlu_east_T1.14" type="vt_car" waiting="0.00" lane="E5_2" pos="109.86" speed="13.96" angle="89.98" x="132.39" y="-5.22"/>
        <vehicle id="yuanlinlu_east_T1.17" eclass="HBEFA3/PC_G_EU4" CO2="5493.99" CO="117.19" HC="0.66" NOx="2.36" PMx="0.11" fuel="1752.33" electricity="0.00" noise="66.91" route="!yuanlinlu_east_T1.17" type="vt_car" waiting="0.00" lane=":J3_19_0" pos="9.79" speed="7.29" angle="81.91" x="-9.80" y="0.12"/>
        <vehicle id="yuanlinlu_east_T1.18" eclass="HBEFA3/PC_G_EU4" CO2="3381.69" CO="21.85" HC="0.18" NOx="1.22" PMx="0.04" fuel="1078.61" electricity="0.00" noise="64.75" route="!yuanlinlu_east_T1.18" type="vt_car" waiting="0.00" lane="E4_1" pos="129.16" speed="12.90" angle="179.98" x="-8.44" y="-149.43"/>
        <vehicle id="yuanlinlu_east_T1.21" eclass="HBEFA3/PC_G_EU4" CO2="2282.17" CO="2.78" HC="0.06" NOx="0.71" PMx="0.01" fuel="727.92" electricity="0.00" noise="63.56" route="!yuanlinlu_east_T1.21" type="vt_car" waiting="0.00" lane="E5_2" pos="86.00" speed="12.40" angle="89.98" x="108.53" y="-5.23"/>
        <vehicle id="yuanlinlu_east_T1.22" eclass="HBEFA3/PC_G_EU4" CO2="2624.59" CO="164.76" HC="0.81" NOx="1.20" PMx="0.07" fuel="837.18" electricity="0.00" noise="55.91" route="!yuanlinlu_east_T1.22" type="vt_car" waiting="2.00" lane="E2_2" pos="363.62" speed="0.00" angle="90.03" x="-20.49" y="-5.26"/>
        <vehicle id="yuanlinlu_east_T1.23" eclass="HBEFA3/HDV" CO2="14015.91" CO="21.79" HC="0.00" NOx="125.02" PMx="2.75" fuel="4408.86" electricity="0.00" noise="73.43" route="!yuanlinlu_east_T1.23" type="vt_truck" waiting="0.00" lane="E2_1" pos="359.97" speed="10.05" angle="90.03" x="-24.14" y="-9.26"/>
        <vehicle id="yuanlinlu_east_T1.27" eclass="HBEFA3/PC_G_EU4" CO2="0.00" CO="0.00" HC="0.00" NOx="0.00" PMx="0.00" fuel="0.00" electricity="0.00" noise="61.96" route="!yuanlinlu_east_T1.27" type="vt_car" waiting="0.00" lane="E2_2" pos="341.22" speed="13.42" angle="90.03" x="-42.89" y="-5.25"/>
        <vehicle id="yuanlinlu_east_T1.28" eclass="HBEFA3/PC_G_EU4" CO2="0.00" CO="0.00" HC="0.00" NOx="0.00" PMx="0.00" fuel="0.00" electricity="0.00" noise="61.01" route="!yuanlinlu_east_T1.28" type="vt_car" waiting="0.00" lane="E2_3" pos="269.38" speed="11.45" angle="90.03" x="-114.73" y="-1.22"/>
        <vehicle id="yuanlinlu_east_T1.29" eclass="HBEFA3/HDV" CO2="0.00" CO="0.00" HC="0.00" NOx="0.00" PMx="0.00" fuel="0.00" electricity="0.00" noise="72.01" route="!yuanlinlu_east_T1.29" type="vt_truck" waiting="0.00" lane="E2_2" pos="212.96" speed="10.41" angle="90.03" x="-171.15" y="-5.19"/>
        <vehicle id="yuanlinlu_east_T1.3" eclass="HBEFA3/PC_G_EU4" CO2="3354.38" CO="45.87" HC="0.29" NOx="1.28" PMx="0.05" fuel="1069.91" electricity="0.00" noise="63.24" route="!yuanlinlu_east_T1.3" type="vt_car" waiting="0.00" lane="E5_1" pos="204.54" speed="9.89" angle="89.98" x="227.07" y="-9.18"/>
        <vehicle id="yuanlinlu_east_T1.31" eclass="HBEFA3/PC_G_EU4" CO2="8010.74" CO="125.50" HC="0.76" NOx="3.43" PMx="0.16" fuel="2555.03" electricity="0.00" noise="69.58" route="!yuanlinlu_east_T1.31" type="vt_car" waiting="0.00" lane="E4_1" pos="27.51" speed="11.77" angle="179.98" x="-8.47" y="-47.78"/>
        <vehicle id="yuanlinlu_east_T1.32" eclass="HBEFA3/PC_G_EU4" CO2="6103.38" CO="90.87" HC="0.56" NOx="2.55" PMx="0.11" fuel="1946.69" electricity="0.00" noise="67.15" route="!yuanlinlu_east_T1.32" type="vt_car" waiting="0.00" lane="E2_2" pos="190.46" speed="11.20" angle="90.03" x="-193.65" y="-5.18"/>
        <vehicle id="yuanlinlu_east_T1.33" eclass="HBEFA3/PC_G_EU4" CO2="0.00" CO="0.00" HC="0.00" NOx="0.00" PMx="0.00" fuel="0.00" electricity="0.00" noise="61.84" route="!yuanlinlu_east_T1.33" type="vt_car" waiting="0.00" lane="E2_3" pos="151.66" speed="11.07" angle="90.03" x="-232.45" y="-1.17"/>
        <vehicle id="yuanlinlu_east_T1.35" eclass="HBEFA3/PC_G_EU4" CO2="1316.31" CO="0.00" HC="0.00" NOx="0.20" PMx="0.00" fuel="419.86" electricity="0.00" noise="64.54" route="!yuanlinlu_east_T1.35" type="vt_car" waiting="0.00" lane="E2_1" pos="221.46" speed="14.69" angle="90.03" x="-162.65" y="-9.20"/>
        <vehicle id="yuanlinlu_east_T1.36" eclass="HBEFA3/HDV" CO2="0.00" CO="0.00" HC="0.00" NOx="0.00" PMx="0.00" fuel="0.00" electricity="0.00" noise="71.50" route="!yuanlinlu_east_T1.36" type="vt_truck" waiting="0.00" lane="E2_2" pos="117.07" speed="10.27" angle="90.03" x="-267.04" y="-5.15"/>
        <vehicle id="yuanlinlu_east_T1.40" eclass="HBEFA3/PC_G_EU4" CO2="0.00" CO="0.00" HC="0.00" NOx="0.00" PMx="0.00" fuel="0.00" electricity="0.00" noise="62.12" route="!yuanlinlu_east_T1.40" type="vt_car" waiting="0.00" lane="E2_3" pos="118.23" speed="12.53" angle="90.03" x="-265.88" y="-1.15"/>
        <vehicle id="yuanlinlu_east_T1.41" eclass="HBEFA3/PC_G_EU4" CO2="0.00" CO="0.00" HC="0.00" NOx="0.00" PMx="0.00" fuel="0.00" electricity="0.00" noise="62.02" route="!yuanlinlu_east_T1.41" type="vt_car" waiting="0.00" lane="E2_2" pos="86.42" speed="11.59" angle="90.03" x="-297.69" y="-5.14"/>
        <vehicle id="yuanlinlu_east_T1.42" eclass="HBEFA3/PC_G_EU4" CO2="2624.72" CO="164.78" HC="0.81" NOx="1.20" PMx="0.07" fuel="837.22" electricity="0.00" noise="55.94" route="!yuanlinlu_east_T1.42" type="vt_car" waiting="5.00" lane="E0_2" pos="360.73" speed="0.00" angle="90.00" x="-419.12" y="-5.09"/>
        <vehicle id="yuanlinlu_east_T1.44" eclass="HBEFA3/PC_G_EU4" CO2="0.00" CO="0.00" HC="0.00" NOx="0.00" PMx="0.00" fuel="0.00" electricity="0.00" noise="61.63" route="!yuanlinlu_east_T1.44" type="vt_car" waiting="0.00" lane="E2_3" pos="248.36" speed="11.80" angle="90.03" x="-135.75" y="-1.21"/>
        <vehicle id="yuanlinlu_east_T1.48" eclass="HBEFA3/PC_G_EU4" CO2="2624.56" CO="164.75" HC="0.81" NOx="1.20" PMx="0.07" fuel="837.17" electricity="0.00" noise="55.92" route="!yuanlinlu_east_T1.48" type="vt_car" waiting="4.00" lane="E0_2" pos="353.23" speed="0.00" angle="90.00" x="-426.62" y="-5.09"/>
        <vehicle id="yuanlinlu_east_T1.49" eclass="HBEFA3/PC_G_EU4" CO2="2623.77" CO="164.63" HC="0.81" NOx="1.20" PMx="0.07" fuel="836.92" electricity="0.00" noise="55.92" route="!yuanlinlu_east_T1.49" type="vt_car" waiting="3.00" lane="E0_2" pos="345.72" speed="0.01" angle="90.00" x="-434.13" y="-5.09"/>
        <vehicle id="yuanlinlu_east_T1.5" eclass="HBEFA3/PC_G_EU4" CO2="0.00" CO="0.00" HC="0.00" NOx="0.00" PMx="0.00" fuel="0.00" electricity="0.00" noise="63.29" route="!yuanlinlu_east_T1.5" type="vt_car" waiting="0.00" lane="E5_3" pos="261.37" speed="14.03" angle="89.98" x="283.89" y="-1.16"/>
        <vehicle id="yuanlinlu_east_T1.51" eclass="HBEFA3/PC_G_EU4" CO2="2623.32" CO="164.58" HC="0.81" NOx="1.20" PMx="0.07" fuel="836.77" electricity="0.00" noise="55.58" route="!yuanlinlu_east_T1.51" type="vt_car" waiting="2.00" lane="E0_2" pos="338.21" speed="0.01" angle="90.00" x="-441.64" y="-5.09"/>
        <vehicle id="yuanlinlu_east_T1.52" eclass="HBEFA3/PC_G_EU4" CO2="2529.75" CO="156.97" HC="0.77" NOx="1.15" PMx="0.06" fuel="806.93" electricity="0.00" noise="53.41" route="!yuanlinlu_east_T1.52" type="vt_car" waiting="0.00" lane="E0_2" pos="330.68" speed="0.33" angle="90.00" x="-449.17" y="-5.09"/>
        <vehicle id="yuanlinlu_east_T1.53" eclass="HBEFA3/PC_G_EU4" CO2="0.00" CO="0.00" HC="0.00" NOx="0.00" PMx="0.00" fuel="0.00" electricity="0.00" noise="55.22" route="!yuanlinlu_east_T1.53" type="vt_car" waiting="0.00" lane="E0_2" pos="322.74" speed="1.36" angle="90.00" x="-457.11" y="-5.09"/>
        <vehicle id="yuanlinlu_east_T1.54" eclass="HBEFA3/PC_G_EU4" CO2="0.00" CO="0.00" HC="0.00" NOx="0.00" PMx="0.00" fuel="0.00" electricity="0.00" noise="52.70" route="!yuanlinlu_east_T1.54" type="vt_car" waiting="0.00" lane="E0_2" pos="313.23" speed="1.97" angle="90.00" x="-466.62" y="-5.09"/>
        <vehicle id="yuanlinlu_east_T1.55" eclass="HBEFA3/PC_G_EU4" CO2="0.00" CO="0.00" HC="0.00" NOx="0.00" PMx="0.00" fuel="0.00" electricity="0.00" noise="45.16" route="!yuanlinlu_east_T1.55" type="vt_car" waiting="0.00" lane="E0_2" pos="303.28" speed="3.36" angle="90.00" x="-476.57" y="-5.09"/>
        <vehicle id="yuanlinlu_east_T1.56" eclass="HBEFA3/HDV" CO2="10179.09" CO="17.86" HC="0.00" NOx="100.06" PMx="2.40" fuel="3201.94" electricity="0.00" noise="70.15" route="!yuanlinlu_east_T1.56" type="vt_truck" waiting="0.00" lane="E0_2" pos="276.11" speed="5.75" angle="90.00" x="-503.74" y="-5.09"/>
        <vehicle id="yuanlinlu_east_T1.59" eclass="HBEFA3/PC_G_EU4" CO2="0.00" CO="0.00" HC="0.00" NOx="0.00" PMx="0.00" fuel="0.00" electricity="0.00" noise="55.04" route="!yuanlinlu_east_T1.59" type="vt_car" waiting="0.00" lane="E0_2" pos="259.48" speed="5.28" angle="90.00" x="-520.37" y="-5.09"/>
        <vehicle id="yuanlinlu_east_T1.63" eclass="HBEFA3/PC_G_EU4" CO2="2425.84" CO="59.60" HC="0.32" NOx="0.93" PMx="0.03" fuel="773.76" electricity="0.00" noise="60.18" route="!yuanlinlu_east_T1.63" type="vt_car" waiting="0.00" lane="E0_2" pos="245.12" speed="6.82" angle="90.00" x="-534.73" y="-5.09"/>
        <vehicle id="yuanlinlu_east_T1.67" eclass="HBEFA3/PC_G_EU4" CO2="0.00" CO="0.00" HC="0.00" NOx="0.00" PMx="0.00" fuel="0.00" electricity="0.00" noise="55.52" route="!yuanlinlu_east_T1.67" type="vt_car" waiting="0.00" lane="E0_2" pos="229.99" speed="7.10" angle="90.00" x="-549.86" y="-5.09"/>
        <vehicle id="yuanlinlu_east_T1.70" eclass="HBEFA3/PC_G_EU4" CO2="0.00" CO="0.00" HC="0.00" NOx="0.00" PMx="0.00" fuel="0.00" electricity="0.00" noise="56.86" route="!yuanlinlu_east_T1.70" type="vt_car" waiting="0.00" lane="E0_2" pos="213.69" speed="7.98" angle="90.00" x="-566.16" y="-5.09"/>
        <vehicle id="yuanlinlu_east_T1.71" eclass="HBEFA3/PC_G_EU4" CO2="4341.07" CO="70.70" HC="0.42" NOx="1.76" PMx="0.07" fuel="1384.61" electricity="0.00" noise="64.49" route="!yuanlinlu_east_T1.71" type="vt_car" waiting="0.00" lane="E0_2" pos="197.41" speed="9.42" angle="90.00" x="-582.44" y="-5.09"/>
        <vehicle id="yuanlinlu_east_T1.73" eclass="HBEFA3/PC_G_EU4" CO2="2001.68" CO="27.02" HC="0.17" NOx="0.67" PMx="0.01" fuel="638.47" electricity="0.00" noise="60.91" route="!yuanlinlu_east_T1.73" type="vt_car" waiting="0.00" lane="E0_2" pos="179.10" speed="8.97" angle="90.00" x="-600.75" y="-5.09"/>
        <vehicle id="yuanlinlu_east_T1.75" eclass="HBEFA3/PC_G_EU4" CO2="2936.24" CO="50.07" HC="0.29" NOx="1.12" PMx="0.04" fuel="936.54" electricity="0.00" noise="62.04" route="!yuanlinlu_east_T1.75" type="vt_car" waiting="0.00" lane="E0_2" pos="161.22" speed="8.60" angle="90.00" x="-618.63" y="-5.09"/>
        <vehicle id="yuanlinlu_east_T1.77" eclass="HBEFA3/PC_G_EU4" CO2="0.00" CO="0.00" HC="0.00" NOx="0.00" PMx="0.00" fuel="0.00" electricity="0.00" noise="52.08" route="!yuanlinlu_east_T1.77" type="vt_car" waiting="0.00" lane="E0_2" pos="290.74" speed="5.20" angle="90.00" x="-489.11" y="-5.09"/>
        <vehicle id="yuanlinlu_east_T1.79" eclass="HBEFA3/PC_G_EU4" CO2="1709.79" CO="27.64" HC="0.16" NOx="0.55" PMx="0.01" fuel="545.37" electricity="0.00" noise="60.01" route="!yuanlinlu_east_T1.79" type="vt_car" waiting="0.00" lane="E0_2" pos="143.43" speed="8.34" angle="90.00" x="-636.42" y="-5.09"/>
        <vehicle id="yuanlinlu_east_T1.8" eclass="HBEFA3/PC_G_EU4" CO2="2614.10" CO="0.00" HC="0.03" NOx="0.81" PMx="0.02" fuel="833.79" electricity="0.00" noise="65.28" route="!yuanlinlu_east_T1.8" type="vt_car" waiting="0.00" lane="E5_2" pos="240.17" speed="14.75" angle="89.98" x="262.70" y="-5.17"/>
        <vehicle id="yuanlinlu_east_T1.80" eclass="HBEFA3/PC_G_EU4" CO2="6388.71" CO="116.56" HC="0.68" NOx="2.74" PMx="0.13" fuel="2037.70" electricity="0.00" noise="67.90" route="!yuanlinlu_east_T1.80" type="vt_car" waiting="0.00" lane="E0_2" pos="125.78" speed="9.05" angle="90.00" x="-654.07" y="-5.09"/>
        <vehicle id="yuanlinlu_east_T1.81" eclass="HBEFA3/PC_G_EU4" CO2="0.00" CO="0.00" HC="0.00" NOx="0.00" PMx="0.00" fuel="0.00" electricity="0.00" noise="55.90" route="!yuanlinlu_east_T1.81" type="vt_car" waiting="0.00" lane="E0_3" pos="277.49" speed="7.59" angle="90.00" x="-502.36" y="-1.09"/>
        <vehicle id="yuanlinlu_east_T1.84" eclass="HBEFA3/PC_G_EU4" CO2="4492.50" CO="94.82" HC="0.54" NOx="1.88" PMx="0.08" fuel="1432.91" electricity="0.00" noise="64.68" route="!yuanlinlu_east_T1.84" type="vt_car" waiting="0.00" lane="E0_2" pos="108.41" speed="7.44" angle="90.00" x="-671.44" y="-5.09"/>