<?xml version="1.0" encoding="UTF-8"?>

<!-- generated on 2024-07-09 12:04:36 by Eclipse SUMO sumo Version 1.19.0
<configuration xmlns:xsi="http://www.w3.org/2001/XMLSchema-instance" xsi:noNamespaceSchemaLocation="http://sumo.dlr.de/xsd/sumoConfiguration.xsd">

    <input>
        <net-file value="sumo_network/example42.net.xml"/>
        <route-files value="sumo_network/example42.rou.xml,sumo_network/bus.rou.xml,sumo_network/pedestrian.rou.xml"/>
        <additional-files value="sumo_network/busstops_def.add.xml,sumo_network/det_e3.add.xml,sumo_network/det_e2.add.xml,sumo_network/edgelane_dump.add.xml,sumo_network/signal-timing-dial.xml"/>
    </input>

    <output>
        <write-license value="false"/>
        <output-prefix value="OUTPUT-"/>
        <precision value="2"/>
        <human-readable-time value="false"/>
        <emission-output value="sumo_network/output/data_emission.xml"/>
        <emission-output.precision value="2"/>
        <queue-output value="sumo_network/output/data_Queue.xml"/>
        <queue-output.period value="300"/>
        <summary-output value="sumo_network/output/data_summary.xml"/>
        <summary-output.period value="300"/>
        <person-summary-output value="sumo_network/output/data_person_summary.xml"/>
        <personinfo-output value="sumo_network/output/data_personinfo.xml"/>
        <collision-output value="sumo_network/output/data_collision.xml"/>
        <edgedata-output value="sumo_network/output/data_edges.xml"/>
        <lanedata-output value="sumo_network/output/data_lanes.xml"/>
        <statistic-output value="sumo_network/output/data_statistic.xml"/>
    </output>

    <time>
        <begin value="0"/>
        <end value="3600"/>
        <step-length value="1"/>
    </time>

    <processing>
        <no-internal-links value="false"/>
        <ignore-route-errors value="true"/>
        <collision.action value="teleport"/>
        <intermodal-collision.action value="warn"/>
        <collision.stoptime value="0"/>
        <intermodal-collision.stoptime value="0"/>
        <collision.check-junctions value="false"/>
        <max-num-vehicles value="-1"/>
        <max-num-teleports value="-1"/>
        <time-to-teleport value="300"/>
        <time-to-teleport.remove value="false"/>
        <waiting-time-memory value="100"/>
        <max-depart-delay value="-1"/>
        <random-depart-offset value="0"/>
        <lanechange.duration value="0"/>
        <lanechange.overtake-right value="false"/>
        <tls.all-off value="false"/>
        <tls.yellow.min-decel value="3"/>
    </processing>

    <routing>
        <routing-algorithm value="dijkstra"/>
    </routing>

    <report>
        <verbose value="true"/>
        <no-warnings value="true"/>
        <log value="sumo_network/output/data_log.xml"/>
        <no-step-log value="true"/>
        <step-log.period value="300"/>
    </report>

    <emissions>
        <device.emissions.period value="300"/>
    </emissions>

    <traci_server>
        <remote-port value="8813"/>
    </traci_server>

    <mesoscopic>
        <mesosim value="false"/>
    </mesoscopic>

    <random_number>
        <random value="false"/>
        <seed value="23423"/>
    </random_number>

    <gui_only>
        <gui-settings-file value="sumo_network/viewsettings.xml"/>
        <start value="true"/>
        <demo value="false"/>
        <window-size value="800,600"/>
        <window-pos value="100,100"/>
    </gui_only>

</configuration>
-->

<queue-export xmlns:xsi="http://www.w3.org/2001/XMLSchema-instance" xsi:noNamespaceSchemaLocation="http://sumo.dlr.de/xsd/queue_file.xsd">
    <data timestep="0.00">
        <lanes/>
    </data>
    <data timestep="300.00">
        <lanes>
            <lane id="-E1_2" queueing_time="48.00" queueing_length="23.10" queueing_length_experimental="23.10"/>
            <lane id="-E3_2" queueing_time="25.00" queueing_length="6.00" queueing_length_experimental="6.00"/>
            <lane id="-E4_3" queueing_time="33.00" queueing_length="6.00" queueing_length_experimental="6.00"/>
            <lane id="-E5_2" queueing_time="3.00" queueing_length="13.00" queueing_length_experimental="28.32"/>
            <lane id="-E6_3" queueing_time="10.00" queueing_length="6.00" queueing_length_experimental="6.00"/>
            <lane id="-E8_2" queueing_time="53.00" queueing_length="319.34" queueing_length_experimental="248.93"/>
            <lane id="-E9_2" queueing_time="22.00" queueing_length="13.51" queueing_length_experimental="13.51"/>
            <lane id="E0_2" queueing_time="5.00" queueing_length="28.52" queueing_length_experimental="43.99"/>
            <lane id="E2_2" queueing_time="2.00" queueing_length="6.00" queueing_length_experimental="6.00"/>
        </lanes>
    </data>
    <data timestep="600.00">
        <lanes>
            <lane id="-E0_1" queueing_time="0.00" queueing_length="0.00" queueing_length_experimental="214.23"/>
            <lane id="-E1_2" queueing_time="9.00" queueing_length="6.00" queueing_length_experimental="6.00"/>
            <lane id="-E2_2" queueing_time="17.00" queueing_length="23.10" queueing_length_experimental="23.10"/>
            <lane id="-E2_3" queueing_time="18.00" queueing_length="15.60" queueing_length_experimental="15.60"/>
            <lane id="-E3_2" queueing_time="13.00" queueing_length="13.50" queueing_length_experimental="13.50"/>
            <lane id="-E5_2" queueing_time="33.00" queueing_length="90.61" queueing_length_experimental="90.61"/>
            <lane id="-E5_3" queueing_time="18.00" queueing_length="6.00" queueing_length_experimental="6.00"/>
            <lane id="-E8_2" queueing_time="40.00" queueing_length="190.28" queueing_length_experimental="235.17"/>
            <lane id="-E8_3" queueing_time="22.00" queueing_length="5.00" queueing_length_experimental="5.00"/>
            <lane id="E0_2" queueing_time="35.00" queueing_length="277.01" queueing_length_experimental="277.01"/>
            <lane id="E2_2" queueing_time="41.00" queueing_length="59.76" queueing_length_experimental="59.76"/>
            <lane id="E5_2" queueing_time="39.00" queueing_length="120.62" queueing_length_experimental="120.62"/>
            <lane id="E8_1" queueing_time="0.00" queueing_length="0.00" queueing_length_experimental="177.63"/>
        </lanes>
    </data>
    <data timestep="900.00">
        <lanes>
            <lane id="-E1_2" queueing_time="22.00" queueing_length="13.50" queueing_length_experimental="13.50"/>
            <lane id="-E3_2" queueing_time="61.00" queueing_length="28.50" queueing_length_experimental="28.50"/>
            <lane id="-E4_3" queueing_time="1.00" queueing_length="6.02" queueing_length_experimental="6.02"/>
            <lane id="-E5_1" queueing_time="0.00" queueing_length="0.00" queueing_length_experimental="209.22"/>
            <lane id="-E5_3" queueing_time="50.00" queueing_length="6.00" queueing_length_experimental="6.00"/>
            <lane id="-E6_2" queueing_time="12.00" queueing_length="6.00" queueing_length_experimental="6.00"/>
            <lane id="-E8_2" queueing_time="45.00" queueing_length="319.84" queueing_length_experimental="248.13"/>
            <lane id="-E8_3" queueing_time="49.00" queueing_length="6.00" queueing_length_experimental="6.00"/>
            <lane id="-E9_2" queueing_time="0.00" queueing_length="0.00" queueing_length_experimental="7.03"/>
            <lane id="E0_2" queueing_time="19.00" queueing_length="102.37" queueing_length_experimental="118.21"/>
            <lane id="E2_3" queueing_time="20.00" queueing_length="21.00" queueing_length_experimental="21.00"/>
        </lanes>
    </data>
    <data timestep="1200.00">
        <lanes>
            <lane id=":J3_4_0" queueing_time="2.00" queueing_length="22.06" queueing_length_experimental="22.06"/>
            <lane id="-E2_2" queueing_time="15.00" queueing_length="28.52" queueing_length_experimental="43.87"/>
            <lane id="-E2_3" queueing_time="31.00" queueing_length="43.51" queueing_length_experimental="51.07"/>
            <lane id="-E5_2" queueing_time="22.00" queueing_length="23.10" queueing_length_experimental="46.25"/>
            <lane id="-E5_3" queueing_time="1.00" queueing_length="6.02" queueing_length_experimental="6.02"/>
            <lane id="-E8_2" queueing_time="23.00" queueing_length="113.23" queueing_length_experimental="146.22"/>
            <lane id="E0_2" queueing_time="33.00" queueing_length="323.78" queueing_length_experimental="269.13"/>
            <lane id="E2_2" queueing_time="2.00" queueing_length="6.00" queueing_length_experimental="6.00"/>
            <lane id="E2_3" queueing_time="8.00" queueing_length="6.00" queueing_length_experimental="6.00"/>
            <lane id="E5_2" queueing_time="24.00" queueing_length="117.43" queueing_length_experimental="125.15"/>
            <lane id="E5_3" queueing_time="0.00" queueing_length="0.00" queueing_length_experimental="8.36"/>
        </lanes>
    </data>
    <data timestep="1500.00">
        <lanes>
            <lane id="-E1_2" queueing_time="19.00" queueing_length="13.50" queueing_length_experimental="13.50"/>
            <lane id="-E5_1" queueing_time="0.00" queueing_length="0.00" queueing_length_experimental="209.21"/>
            <lane id="-E5_3" queueing_time="43.00" queueing_length="13.01" queueing_length_experimental="13.01"/>
            <lane id="-E8_1" queueing_time="0.00" queueing_length="0.00" queueing_length_experimental="35.32"/>
            <lane id="-E8_2" queueing_time="50.00" queueing_length="295.32" queueing_length_experimental="242.73"/>
            <lane id="-E8_3" queueing_time="33.00" queueing_length="36.36" queueing_length_experimental="36.36"/>
            <lane id="E0_2" queueing_time="31.00" queueing_length="147.35" queueing_length_experimental="197.90"/>
            <lane id="E0_3" queueing_time="23.00" queueing_length="23.10" queueing_length_experimental="23.10"/>
            <lane id="E2_2" queueing_time="28.00" queueing_length="137.72" queueing_length_experimental="137.72"/>
            <lane id="E2_3" queueing_time="29.00" queueing_length="13.50" queueing_length_experimental="13.50"/>
            <lane id="E3_1" queueing_time="0.00" queueing_length="0.00" queueing_length_experimental="37.72"/>
            <lane id="E5_1" queueing_time="43.00" queueing_length="181.28" queueing_length_experimental="181.28"/>
            <lane id="E5_2" queueing_time="33.00" queueing_length="51.01" queueing_length_experimental="58.63"/>
            <lane id="E5_3" queueing_time="43.00" queueing_length="21.00" queueing_length_experimental="21.00"/>
        </lanes>
    </data>
    <data timestep="1800.00">
        <lanes>
            <lane id="-E2_2" queueing_time="43.00" queueing_length="13.50" queueing_length_experimental="13.50"/>
            <lane id="-E2_3" queueing_time="37.00" queueing_length="6.00" queueing_length_experimental="6.00"/>
            <lane id="-E4_3" queueing_time="27.00" queueing_length="15.60" queueing_length_experimental="15.60"/>
            <lane id="-E5_2" queueing_time="4.00" queueing_length="6.00" queueing_length_experimental="6.00"/>
            <lane id="-E6_2" queueing_time="36.00" queueing_length="6.00" queueing_length_experimental="6.00"/>
            <lane id="-E6_3" queueing_time="25.00" queueing_length="13.50" queueing_length_experimental="13.50"/>
            <lane id="-E7_2" queueing_time="20.00" queueing_length="6.00" queueing_length_experimental="13.51"/>
            <lane id="-E8_2" queueing_time="6.00" queueing_length="21.00" queueing_length_experimental="248.74"/>
            <lane id="-E9_2" queueing_time="36.00" queueing_length="21.02" queueing_length_experimental="21.02"/>
            <lane id="E0_2" queueing_time="11.00" queueing_length="279.04" queueing_length_experimental="271.53"/>
            <lane id="E2_2" queueing_time="6.00" queueing_length="6.00" queueing_length_experimental="6.00"/>
        </lanes>
    </data>
    <data timestep="2100.00">
        <lanes>
            <lane id=":J1_4_0" queueing_time="3.00" queueing_length="27.92" queueing_length_experimental="0.00"/>
            <lane id=":J6_21_0" queueing_time="3.00" queueing_length="12.16" queueing_length_experimental="12.16"/>
            <lane id=":J6_14_0" queueing_time="13.00" queueing_length="6.00" queueing_length_experimental="6.00"/>
            <lane id="-E1_2" queueing_time="0.00" queueing_length="0.00" queueing_length_experimental="37.64"/>
            <lane id="-E5_1" queueing_time="0.00" queueing_length="0.00" queueing_length_experimental="209.22"/>
            <lane id="-E5_2" queueing_time="22.00" queueing_length="28.50" queueing_length_experimental="28.50"/>
            <lane id="-E8_1" queueing_time="40.00" queueing_length="62.75" queueing_length_experimental="70.95"/>
            <lane id="-E8_2" queueing_time="43.00" queueing_length="211.99" queueing_length_experimental="245.65"/>
            <lane id="-E8_3" queueing_time="38.00" queueing_length="18.89" queueing_length_experimental="18.89"/>
            <lane id="E0_1" queueing_time="16.00" queueing_length="24.46" queueing_length_experimental="24.46"/>
            <lane id="E0_2" queueing_time="41.00" queueing_length="232.01" queueing_length_experimental="263.98"/>
            <lane id="E0_3" queueing_time="26.00" queueing_length="21.00" queueing_length_experimental="21.00"/>
            <lane id="E2_2" queueing_time="44.00" queueing_length="66.01" queueing_length_experimental="66.01"/>
            <lane id="E2_3" queueing_time="27.00" queueing_length="13.50" queueing_length_experimental="13.50"/>
            <lane id="E5_1" queueing_time="23.00" queueing_length="181.25" queueing_length_experimental="181.25"/>
            <lane id="E5_2" queueing_time="28.00" queueing_length="43.51" queueing_length_experimental="43.51"/>
            <lane id="E5_3" queueing_time="14.00" queueing_length="6.00" queueing_length_experimental="6.00"/>
        </lanes>
    </data>
    <data timestep="2400.00">
        <lanes>
            <lane id=":J6_24_0" queueing_time="0.00" queueing_length="0.00" queueing_length_experimental="10.12"/>
            <lane id="-E0_1" queueing_time="0.00" queueing_length="0.00" queueing_length_experimental="214.25"/>
            <lane id="-E1_2" queueing_time="52.00" queueing_length="127.76" queueing_length_experimental="127.76"/>
            <lane id="-E3_2" queueing_time="46.00" queueing_length="13.50" queueing_length_experimental="13.50"/>
            <lane id="-E4_2" queueing_time="18.00" queueing_length="6.00" queueing_length_experimental="6.00"/>
            <lane id="-E5_3" queueing_time="54.00" queueing_length="15.60" queueing_length_experimental="15.60"/>
            <lane id="-E6_2" queueing_time="9.00" queueing_length="6.00" queueing_length_experimental="6.00"/>
            <lane id="-E7_2" queueing_time="14.00" queueing_length="6.00" queueing_length_experimental="6.00"/>
            <lane id="-E8_2" queueing_time="44.00" queueing_length="325.24" queueing_length_experimental="242.73"/>
            <lane id="-E9_2" queueing_time="13.00" queueing_length="6.00" queueing_length_experimental="6.00"/>
            <lane id="E0_2" queueing_time="35.00" queueing_length="357.35" queueing_length_experimental="274.20"/>
            <lane id="E2_3" queueing_time="59.00" queueing_length="6.00" queueing_length_experimental="6.00"/>
            <lane id="E5_3" queueing_time="60.00" queueing_length="6.00" queueing_length_experimental="6.00"/>
        </lanes>
    </data>
    <data timestep="2700.00">
        <lanes>
            <lane id="-E1_2" queueing_time="12.00" queueing_length="43.51" queueing_length_experimental="141.15"/>
            <lane id="-E2_2" queueing_time="11.00" queueing_length="21.05" queueing_length_experimental="28.87"/>
            <lane id="-E3_2" queueing_time="12.00" queueing_length="51.01" queueing_length_experimental="51.01"/>
            <lane id="-E5_1" queueing_time="0.00" queueing_length="0.00" queueing_length_experimental="209.21"/>
            <lane id="-E5_2" queueing_time="28.00" queueing_length="60.11" queueing_length_experimental="69.96"/>
            <lane id="-E5_3" queueing_time="10.00" queueing_length="6.00" queueing_length_experimental="6.00"/>
            <lane id="-E8_2" queueing_time="27.00" queueing_length="128.16" queueing_length_experimental="151.48"/>
            <lane id="E0_2" queueing_time="34.00" queueing_length="272.86" queueing_length_experimental="272.86"/>
            <lane id="E2_2" queueing_time="26.00" queueing_length="21.00" queueing_length_experimental="21.00"/>
            <lane id="E2_3" queueing_time="10.00" queueing_length="6.00" queueing_length_experimental="6.00"/>
            <lane id="E5_1" queueing_time="0.00" queueing_length="0.00" queueing_length_experimental="166.71"/>
            <lane id="E5_2" queueing_time="19.00" queueing_length="43.51" queueing_length_experimental="43.51"/>
            <lane id="E5_3" queueing_time="8.00" queueing_length="6.00" queueing_length_experimental="6.00"/>
        </lanes>
    </data>
    <data timestep="3000.00">
        <lanes>
            <lane id="-E1_2" queueing_time="62.00" queueing_length="152.72" queueing_length_experimental="137.72"/>
            <lane id="-E3_2" queueing_time="42.00" queueing_length="13.50" queueing_length_experimental="13.50"/>
            <lane id="-E5_2" queueing_time="0.00" queueing_length="0.00" queueing_length_experimental="67.90"/>
            <lane id="-E5_3" queueing_time="46.00" queueing_length="13.50" queueing_length_experimental="13.50"/>
            <lane id="-E8_1" queueing_time="47.00" queueing_length="39.49" queueing_length_experimental="39.49"/>
            <lane id="-E8_2" queueing_time="49.00" queueing_length="319.90" queueing_length_experimental="246.03"/>
            <lane id="E0_2" queueing_time="19.00" queueing_length="92.73" queueing_length_experimental="124.79"/>
            <lane id="E0_3" queueing_time="17.00" queueing_length="22.18" queueing_length_experimental="22.18"/>
            <lane id="E2_2" queueing_time="0.00" queueing_length="0.00" queueing_length_experimental="65.83"/>
            <lane id="E2_3" queueing_time="47.00" queueing_length="55.21" queueing_length_experimental="55.21"/>
            <lane id="E5_2" queueing_time="34.00" queueing_length="90.61" queueing_length_experimental="90.61"/>
            <lane id="E5_3" queueing_time="43.00" queueing_length="13.50" queueing_length_experimental="13.50"/>
        </lanes>
    </data>
    <data timestep="3300.00">
        <lanes>
            <lane id="-E1_2" queueing_time="24.00" queueing_length="120.83" queueing_length_experimental="128.41"/>
            <lane id="-E2_2" queueing_time="30.00" queueing_length="13.50" queueing_length_experimental="21.17"/>
            <lane id="-E2_3" queueing_time="7.00" queueing_length="6.00" queueing_length_experimental="6.00"/>
            <lane id="-E5_2" queueing_time="5.00" queueing_length="13.50" queueing_length_experimental="21.15"/>
            <lane id="-E6_2" queueing_time="27.00" queueing_length="6.00" queueing_length_experimental="6.00"/>
            <lane id="-E7_2" queueing_time="38.00" queueing_length="13.50" queueing_length_experimental="13.50"/>
            <lane id="-E8_2" queueing_time="41.00" queueing_length="324.03" queueing_length_experimental="243.55"/>
            <lane id="-E9_2" queueing_time="34.00" queueing_length="13.51" queueing_length_experimental="13.51"/>
            <lane id="E0_2" queueing_time="34.00" queueing_length="326.17" queueing_length_experimental="273.64"/>
            <lane id="E5_1" queueing_time="0.00" queueing_length="0.00" queueing_length_experimental="166.73"/>
            <lane id="E5_2" queueing_time="2.00" queueing_length="6.00" queueing_length_experimental="13.52"/>
        </lanes>
    </data>
</queue-export>
