<?xml version="1.0" encoding="UTF-8"?>

<!-- generated on 2024-04-02 15:02:37 by Eclipse SUMO sumo Version 1.19.0
<configuration xmlns:xsi="http://www.w3.org/2001/XMLSchema-instance" xsi:noNamespaceSchemaLocation="http://sumo.dlr.de/xsd/sumoConfiguration.xsd">

    <input>
        <net-file value="sumo_network/example42.net.xml"/>
        <route-files value="sumo_network/example42.rou.xml,sumo_network/bus.rou.xml,sumo_network/pedestrian.rou.xml"/>
        <additional-files value="sumo_network/busstops_def.add.xml,sumo_network/det_e3.add.xml,sumo_network/det_e2.add.xml,sumo_network/edgelane_dump.add.xml,sumo_network/signal-timing-dial.xml"/>
    </input>

    <output>
        <write-license value="false"/>
        <output-prefix value="OUTPUT-"/>
        <precision value="2"/>
        <human-readable-time value="false"/>
        <emission-output value="sumo_network/output/data_emission.xml"/>
        <emission-output.precision value="2"/>
        <queue-output value="sumo_network/output/data_Queue.xml"/>
        <queue-output.period value="300"/>
        <summary-output value="sumo_network/output/data_summary.xml"/>
        <summary-output.period value="300"/>
        <person-summary-output value="sumo_network/output/data_person_summary.xml"/>
        <personinfo-output value="sumo_network/output/data_personinfo.xml"/>
        <collision-output value="sumo_network/output/data_collision.xml"/>
        <edgedata-output value="sumo_network/output/data_edges.xml"/>
        <lanedata-output value="sumo_network/output/data_lanes.xml"/>
        <statistic-output value="sumo_network/output/data_statistic.xml"/>
    </output>

    <time>
        <begin value="0"/>
        <end value="3600"/>
        <step-length value="1"/>
    </time>

    <processing>
        <no-internal-links value="false"/>
        <ignore-route-errors value="true"/>
        <collision.action value="teleport"/>
        <intermodal-collision.action value="warn"/>
        <collision.stoptime value="0"/>
        <intermodal-collision.stoptime value="0"/>
        <collision.check-junctions value="false"/>
        <max-num-vehicles value="-1"/>
        <max-num-teleports value="-1"/>
        <time-to-teleport value="300"/>
        <time-to-teleport.remove value="false"/>
        <waiting-time-memory value="100"/>
        <max-depart-delay value="-1"/>
        <random-depart-offset value="0"/>
        <lanechange.duration value="0"/>
        <lanechange.overtake-right value="false"/>
        <tls.all-off value="false"/>
        <tls.yellow.min-decel value="3"/>
    </processing>

    <routing>
        <routing-algorithm value="dijkstra"/>
    </routing>

    <report>
        <verbose value="true"/>
        <no-warnings value="true"/>
        <log value="sumo_network/output/data_log.xml"/>
        <no-step-log value="true"/>
        <step-log.period value="300"/>
    </report>

    <emissions>
        <device.emissions.period value="300"/>
    </emissions>

    <traci_server>
        <remote-port value="8813"/>
    </traci_server>

    <mesoscopic>
        <mesosim value="false"/>
    </mesoscopic>

    <random_number>
        <random value="false"/>
        <seed value="23423"/>
    </random_number>

    <gui_only>
        <gui-settings-file value="sumo_network/viewsettings.xml"/>
        <start value="true"/>
        <demo value="false"/>
        <window-size value="800,600"/>
        <window-pos value="100,100"/>
    </gui_only>

</configuration>
-->

<emission-export xmlns:xsi="http://www.w3.org/2001/XMLSchema-instance" xsi:noNamespaceSchemaLocation="http://sumo.dlr.de/xsd/emission_file.xsd">
    <timestep time="0.00">
        <vehicle id="down2up_211.0" eclass="HBEFA3/Bus" CO2="5286.11" CO="20.17" HC="4.85" NOx="60.75" PMx="2.01" fuel="1671.11" electricity="0.00" noise="67.11" route="rt_DOWN2UP" type="BUS_A" waiting="0.00" lane="-E7_1" pos="12.10" speed="0.00" angle="360.00" x="410.25" y="-191.40"/>
        <vehicle id="feitianlu_north_T1.0" eclass="HBEFA3/PC_G_EU4" CO2="2624.72" CO="164.78" HC="0.81" NOx="1.20" PMx="0.07" fuel="837.22" electricity="0.00" noise="55.94" route="!feitianlu_north_T1.0" type="vt_car" waiting="0.00" lane="-E9_2" pos="5.10" speed="0.00" angle="180.02" x="402.32" y="202.61"/>
        <vehicle id="feitianlu_south_T1.0" eclass="HBEFA3/PC_G_EU4" CO2="2624.72" CO="164.78" HC="0.81" NOx="1.20" PMx="0.07" fuel="837.22" electricity="0.00" noise="55.94" route="!feitianlu_south_T1.0" type="vt_car" waiting="0.00" lane="-E15_1" pos="5.10" speed="0.00" angle="0.00" x="406.00" y="-594.90"/>
        <vehicle id="fukanglu_north_T1.0" eclass="HBEFA3/PC_G_EU4" CO2="2624.72" CO="164.78" HC="0.81" NOx="1.20" PMx="0.07" fuel="837.22" electricity="0.00" noise="55.94" route="!fukanglu_north_T1.0" type="vt_car" waiting="0.00" lane="-E6_3" pos="5.10" speed="0.00" angle="180.04" x="-0.35" y="199.73"/>
        <vehicle id="fukanglu_south_T1.0" eclass="HBEFA3/PC_G_EU4" CO2="2624.72" CO="164.78" HC="0.81" NOx="1.20" PMx="0.07" fuel="837.22" electricity="0.00" noise="55.94" route="!fukanglu_south_T1.0" type="vt_car" waiting="0.00" lane="-E13_2" pos="5.10" speed="0.00" angle="0.00" x="6.00" y="-594.90"/>
        <vehicle id="up2down_211.0" eclass="HBEFA3/Bus" CO2="5286.11" CO="20.17" HC="4.85" NOx="60.75" PMx="2.01" fuel="1671.11" electricity="0.00" noise="67.11" route="rt_UP2DOWN" type="BUS_B" waiting="0.00" lane="-E3_1" pos="12.10" speed="0.00" angle="180.02" x="-407.06" y="190.50"/>
        <vehicle id="w2e_106.0" eclass="HBEFA3/Bus" CO2="5286.11" CO="20.17" HC="4.85" NOx="60.75" PMx="2.01" fuel="1671.11" electricity="0.00" noise="67.11" route="rt_W2E" type="BUS_A" waiting="0.00" lane="E0_1" pos="12.10" speed="0.00" angle="90.00" x="-767.75" y="-9.09"/>
        <vehicle id="xingminlu_north_T1.0" eclass="HBEFA3/PC_G_EU4" CO2="2624.72" CO="164.78" HC="0.81" NOx="1.20" PMx="0.07" fuel="837.22" electricity="0.00" noise="55.94" route="!xingminlu_north_T1.0" type="vt_car" waiting="0.00" lane="-E3_2" pos="5.10" speed="0.00" angle="180.02" x="-403.06" y="197.50"/>
        <vehicle id="xingminlu_south_T1.0" eclass="HBEFA3/PC_G_EU4" CO2="2624.72" CO="164.78" HC="0.81" NOx="1.20" PMx="0.07" fuel="837.22" electricity="0.00" noise="55.94" route="!xingminlu_south_T1.0" type="vt_car" waiting="0.00" lane="-E11_2" pos="5.10" speed="0.00" angle="0.00" x="-398.00" y="-594.90"/>
        <vehicle id="yuanlinlu_east.0" eclass="HBEFA3/PC_G_EU4" CO2="2624.72" CO="164.78" HC="0.81" NOx="1.20" PMx="0.07" fuel="837.22" electricity="0.00" noise="55.94" route="!yuanlinlu_east.0" type="vt_car" waiting="0.00" lane="E16_3" pos="5.10" speed="0.00" angle="90.00" x="-794.90" y="-402.00"/>
        <vehicle id="yuanlinlu_east_T1.0" eclass="HBEFA3/PC_G_EU4" CO2="2624.72" CO="164.78" HC="0.81" NOx="1.20" PMx="0.07" fuel="837.22" electricity="0.00" noise="55.94" route="!yuanlinlu_east_T1.0" type="vt_car" waiting="0.00" lane="E0_2" pos="5.10" speed="0.00" angle="90.00" x="-774.75" y="-5.09"/>
        <vehicle id="yuanlinlu_west.0" eclass="HBEFA3/PC_G_EU4" CO2="2624.72" CO="164.78" HC="0.81" NOx="1.20" PMx="0.07" fuel="837.22" electricity="0.00" noise="55.94" route="!yuanlinlu_west.0" type="vt_car" waiting="0.00" lane="-E19_2" pos="5.10" speed="0.00" angle="270.00" x="794.90" y="-394.00"/>
        <vehicle id="yuanlinlu_west_T1.0" eclass="HBEFA3/PC_G_EU4" CO2="2624.72" CO="164.78" HC="0.81" NOx="1.20" PMx="0.07" fuel="837.22" electricity="0.00" noise="55.94" route="!yuanlinlu_west_T1.0" type="vt_car" waiting="0.00" lane="-E8_1" pos="5.10" speed="0.00" angle="270.03" x="741.78" y="10.69"/>
    </timestep>
    <timestep time="300.00">
        <vehicle id="down2up_211.0" eclass="HBEFA3/Bus" CO2="5286.11" CO="20.17" HC="4.85" NOx="60.75" PMx="2.01" fuel="1671.11" electricity="0.00" noise="67.11" route="rt_DOWN2UP" type="BUS_A" waiting="92.00" lane="-E5_2" pos="294.10" speed="0.00" angle="269.98" x="93.14" y="6.77"/>
        <vehicle id="e2w_106.0" eclass="HBEFA3/Bus" CO2="13271.25" CO="26.06" HC="5.86" NOx="111.03" PMx="2.74" fuel="4199.13" electricity="0.00" noise="72.48" route="rt_E2W" type="BUS_B" waiting="0.00" lane="-E5_2" pos="3.95" speed="6.83" angle="269.99" x="383.28" y="6.88"/>
        <vehicle id="feitianlu_north_T1.10" eclass="HBEFA3/PC_G_EU4" CO2="2624.72" CO="164.78" HC="0.81" NOx="1.20" PMx="0.07" fuel="837.22" electricity="0.00" noise="55.94" route="!feitianlu_north_T1.10" type="vt_car" waiting="53.00" lane="-E5_2" pos="279.60" speed="0.00" angle="269.98" x="107.64" y="6.77"/>
        <vehicle id="feitianlu_north_T1.11" eclass="HBEFA3/PC_G_EU4" CO2="2624.72" CO="164.78" HC="0.81" NOx="1.20" PMx="0.07" fuel="837.22" electricity="0.00" noise="55.94" route="!feitianlu_north_T1.11" type="vt_car" waiting="34.00" lane="-E5_2" pos="272.10" speed="0.00" angle="269.98" x="115.14" y="6.78"/>
        <vehicle id="feitianlu_north_T1.12" eclass="HBEFA3/PC_G_EU4" CO2="6338.92" CO="95.16" HC="0.58" NOx="2.66" PMx="0.12" fuel="2021.81" electricity="0.00" noise="67.45" route="!feitianlu_north_T1.12" type="vt_car" waiting="0.00" lane="-E18_2" pos="87.26" speed="11.26" angle="270.00" x="295.74" y="-394.00"/>
        <vehicle id="feitianlu_north_T1.13" eclass="HBEFA3/PC_G_EU4" CO2="3641.56" CO="26.69" HC="0.21" NOx="1.34" PMx="0.05" fuel="1161.49" electricity="0.00" noise="65.01" route="!feitianlu_north_T1.13" type="vt_car" waiting="0.00" lane="-E5_2" pos="238.34" speed="12.98" angle="269.98" x="148.90" y="6.79"/>
        <vehicle id="feitianlu_north_T1.14" eclass="HBEFA3/PC_G_EU4" CO2="2608.98" CO="162.66" HC="0.80" NOx="1.19" PMx="0.06" fuel="832.20" electricity="0.00" noise="55.54" route="!feitianlu_north_T1.14" type="vt_car" waiting="0.00" lane="-E9_2" pos="184.76" speed="0.10" angle="180.02" x="402.25" y="22.95"/>
        <vehicle id="feitianlu_north_T1.15" eclass="HBEFA3/PC_G_EU4" CO2="2624.72" CO="164.78" HC="0.81" NOx="1.20" PMx="0.07" fuel="837.22" electricity="0.00" noise="55.94" route="!feitianlu_north_T1.15" type="vt_car" waiting="0.00" lane="-E9_2" pos="5.10" speed="0.00" angle="180.02" x="402.32" y="202.61"/>
        <vehicle id="feitianlu_north_T1.6" eclass="HBEFA3/PC_G_EU4" CO2="2624.72" CO="164.78" HC="0.81" NOx="1.20" PMx="0.07" fuel="837.22" electricity="0.00" noise="55.94" route="!feitianlu_north_T1.6" type="vt_car" waiting="128.00" lane="-E5_2" pos="356.21" speed="0.00" angle="269.98" x="31.03" y="6.74"/>
        <vehicle id="feitianlu_north_T1.9" eclass="HBEFA3/PC_G_EU4" CO2="7096.04" CO="119.50" HC="0.71" NOx="3.04" PMx="0.14" fuel="2263.30" electricity="0.00" noise="68.67" route="!feitianlu_north_T1.9" type="vt_car" waiting="0.00" lane="E13_3" pos="23.33" speed="10.26" angle="180.00" x="-2.00" y="-444.33"/>
        <vehicle id="feitianlu_south_T1.10" eclass="HBEFA3/PC_G_EU4" CO2="0.00" CO="0.00" HC="0.00" NOx="0.00" PMx="0.00" fuel="0.00" electricity="0.00" noise="62.62" route="!feitianlu_south_T1.10" type="vt_car" waiting="0.00" lane="E19_1" pos="355.67" speed="13.16" angle="90.00" x="773.04" y="-410.00"/>
        <vehicle id="feitianlu_south_T1.11" eclass="HBEFA3/PC_G_EU4" CO2="0.00" CO="0.00" HC="0.00" NOx="0.00" PMx="0.00" fuel="0.00" electricity="0.00" noise="52.79" route="!feitianlu_south_T1.11" type="vt_car" waiting="0.00" lane=":J6_12_0" pos="2.69" speed="7.13" angle="4.38" x="410.62" y="-17.46"/>
        <vehicle id="feitianlu_south_T1.12" eclass="HBEFA3/PC_G_EU4" CO2="0.00" CO="0.00" HC="0.00" NOx="0.00" PMx="0.00" fuel="0.00" electricity="0.00" noise="62.17" route="!feitianlu_south_T1.12" type="vt_car" waiting="0.00" lane="E19_1" pos="133.49" speed="13.26" angle="90.00" x="550.86" y="-410.00"/>
        <vehicle id="feitianlu_south_T1.13" eclass="HBEFA3/HDV" CO2="0.00" CO="0.00" HC="0.00" NOx="0.00" PMx="0.00" fuel="0.00" electricity="0.00" noise="71.42" route="!feitianlu_south_T1.13" type="vt_truck" waiting="0.00" lane="-E15_2" pos="54.72" speed="10.47" angle="0.00" x="402.00" y="-545.28"/>
        <vehicle id="feitianlu_south_T1.2" eclass="HBEFA3/PC_G_EU4" CO2="0.00" CO="0.00" HC="0.00" NOx="0.00" PMx="0.00" fuel="0.00" electricity="0.00" noise="56.62" route="!feitianlu_south_T1.2" type="vt_car" waiting="0.00" lane="E18_2" pos="343.40" speed="8.53" angle="90.00" x="364.53" y="-406.00"/>
        <vehicle id="feitianlu_south_T1.6" eclass="HBEFA3/PC_G_EU4" CO2="6994.96" CO="102.50" HC="0.63" NOx="2.95" PMx="0.14" fuel="2231.05" electricity="0.00" noise="68.27" route="!feitianlu_south_T1.6" type="vt_car" waiting="0.00" lane="-E17_1" pos="3.30" speed="12.04" angle="308.66" x="-24.30" y="-390.00"/>
        <vehicle id="feitianlu_south_T1.9" eclass="HBEFA3/PC_G_EU4" CO2="0.00" CO="0.00" HC="0.00" NOx="0.00" PMx="0.00" fuel="0.00" electricity="0.00" noise="56.38" route="!feitianlu_south_T1.9" type="vt_car" waiting="0.00" lane="-E4_2" pos="171.41" speed="9.49" angle="359.98" x="7.52" y="-28.97"/>
        <vehicle id="fukanglu_north_T1.1" eclass="HBEFA3/PC_G_EU4" CO2="0.00" CO="0.00" HC="0.00" NOx="0.00" PMx="0.00" fuel="0.00" electricity="0.00" noise="58.51" route="!fukanglu_north_T1.1" type="vt_car" waiting="0.00" lane=":J15_18_0" pos="21.61" speed="9.25" angle="90.00" x="404.61" y="-406.00"/>
        <vehicle id="fukanglu_north_T1.14" eclass="HBEFA3/PC_G_EU4" CO2="1752.05" CO="0.00" HC="0.00" NOx="0.47" PMx="0.00" fuel="558.84" electricity="0.00" noise="63.07" route="!fukanglu_north_T1.14" type="vt_car" waiting="0.00" lane="-E0_2" pos="124.65" speed="12.29" angle="270.00" x="-542.77" y="6.91"/>
        <vehicle id="fukanglu_north_T1.15" eclass="HBEFA3/PC_G_EU4" CO2="1479.03" CO="0.00" HC="0.00" NOx="0.30" PMx="0.00" fuel="471.76" electricity="0.00" noise="64.06" route="!fukanglu_north_T1.15" type="vt_car" waiting="0.00" lane="E5_1" pos="330.69" speed="13.90" angle="89.98" x="353.22" y="-9.13"/>
        <vehicle id="fukanglu_north_T1.16" eclass="HBEFA3/PC_G_EU4" CO2="3873.42" CO="25.20" HC="0.20" NOx="1.43" PMx="0.05" fuel="1235.44" electricity="0.00" noise="65.68" route="!fukanglu_north_T1.16" type="vt_car" waiting="0.00" lane="E5_2" pos="293.19" speed="13.95" angle="89.98" x="315.72" y="-5.15"/>
        <vehicle id="fukanglu_north_T1.17" eclass="HBEFA3/PC_G_EU4" CO2="2894.32" CO="16.24" HC="0.14" NOx="1.01" PMx="0.03" fuel="923.17" electricity="0.00" noise="63.99" route="!fukanglu_north_T1.17" type="vt_car" waiting="0.00" lane="E12_1" pos="115.32" speed="12.29" angle="180.45" x="-9.34" y="-315.92"/>
        <vehicle id="fukanglu_north_T1.18" eclass="HBEFA3/PC_G_EU4" CO2="4823.66" CO="59.19" HC="0.38" NOx="1.93" PMx="0.08" fuel="1538.52" electricity="0.00" noise="65.71" route="!fukanglu_north_T1.18" type="vt_car" waiting="0.00" lane="-E2_2" pos="95.30" speed="11.86" angle="270.03" x="-114.79" y="6.78"/>
        <vehicle id="fukanglu_north_T1.19" eclass="HBEFA3/PC_G_EU4" CO2="0.00" CO="0.00" HC="0.00" NOx="0.00" PMx="0.00" fuel="0.00" electricity="0.00" noise="62.32" route="!fukanglu_north_T1.19" type="vt_car" waiting="0.00" lane="-E6_2" pos="166.52" speed="12.63" angle="180.04" x="-4.47" y="38.31"/>
        <vehicle id="fukanglu_north_T1.20" eclass="HBEFA3/PC_G_EU4" CO2="2624.72" CO="164.78" HC="0.81" NOx="1.20" PMx="0.07" fuel="837.22" electricity="0.00" noise="55.94" route="!fukanglu_north_T1.20" type="vt_car" waiting="0.00" lane="-E6_1" pos="5.10" speed="0.00" angle="180.04" x="-8.35" y="199.74"/>
        <vehicle id="fukanglu_north_T1.3" eclass="HBEFA3/HDV" CO2="7380.56" CO="15.20" HC="0.00" NOx="84.89" PMx="2.21" fuel="2321.67" electricity="0.00" noise="67.11" route="!fukanglu_north_T1.3" type="vt_truck" waiting="17.00" lane="E10_2" pos="144.62" speed="0.00" angle="179.68" x="-402.29" y="-347.93"/>
        <vehicle id="fukanglu_north_T1.4" eclass="HBEFA3/PC_G_EU4" CO2="0.00" CO="0.00" HC="0.00" NOx="0.00" PMx="0.00" fuel="0.00" electricity="0.00" noise="48.70" route="!fukanglu_north_T1.4" type="vt_car" waiting="0.00" lane="E18_2" pos="358.03" speed="4.97" angle="90.00" x="379.16" y="-406.00"/>
        <vehicle id="fukanglu_north_T1.6" eclass="HBEFA3/PC_G_EU4" CO2="7520.73" CO="147.78" HC="0.85" NOx="3.29" PMx="0.16" fuel="2398.75" electricity="0.00" noise="70.47" route="!fukanglu_north_T1.6" type="vt_car" waiting="0.00" lane="-E17_2" pos="343.44" speed="8.29" angle="270.00" x="-364.44" y="-394.00"/>
        <vehicle id="fukanglu_north_T1.8" eclass="HBEFA3/PC_G_EU4" CO2="2624.72" CO="164.78" HC="0.81" NOx="1.20" PMx="0.07" fuel="837.22" electricity="0.00" noise="55.94" route="!fukanglu_north_T1.8" type="vt_car" waiting="15.00" lane="E10_2" pos="135.02" speed="0.00" angle="179.68" x="-402.34" y="-338.33"/>
        <vehicle id="fukanglu_south_T1.11" eclass="HBEFA3/PC_G_EU4" CO2="2624.72" CO="164.78" HC="0.81" NOx="1.20" PMx="0.07" fuel="837.22" electricity="0.00" noise="55.94" route="!fukanglu_south_T1.11" type="vt_car" waiting="34.00" lane="-E13_2" pos="178.00" speed="0.00" angle="0.00" x="6.00" y="-422.00"/>
        <vehicle id="fukanglu_south_T1.12" eclass="HBEFA3/PC_G_EU4" CO2="2624.72" CO="164.78" HC="0.81" NOx="1.20" PMx="0.07" fuel="837.22" electricity="0.00" noise="55.94" route="!fukanglu_south_T1.12" type="vt_car" waiting="13.00" lane="-E13_2" pos="170.50" speed="0.00" angle="0.00" x="6.00" y="-429.50"/>
        <vehicle id="fukanglu_south_T1.13" eclass="HBEFA3/PC_G_EU4" CO2="8267.76" CO="116.90" HC="0.73" NOx="3.50" PMx="0.17" fuel="2637.01" electricity="0.00" noise="69.67" route="!fukanglu_south_T1.13" type="vt_car" waiting="0.00" lane="-E13_2" pos="61.17" speed="13.75" angle="0.00" x="6.00" y="-538.83"/>
        <vehicle id="fukanglu_south_T1.6" eclass="HBEFA3/PC_G_EU4" CO2="0.00" CO="0.00" HC="0.00" NOx="0.00" PMx="0.00" fuel="0.00" electricity="0.00" noise="63.64" route="!fukanglu_south_T1.6" type="vt_car" waiting="0.00" lane="E1_2" pos="158.84" speed="14.16" angle="179.99" x="-403.09" y="-178.94"/>
        <vehicle id="fukanglu_south_T1.7" eclass="HBEFA3/PC_G_EU4" CO2="3019.33" CO="19.09" HC="0.16" NOx="1.07" PMx="0.03" fuel="963.04" electricity="0.00" noise="64.08" route="!fukanglu_south_T1.7" type="vt_car" waiting="0.00" lane="E5_2" pos="318.81" speed="12.25" angle="89.98" x="341.34" y="-5.14"/>
        <vehicle id="fukanglu_south_T1.9" eclass="HBEFA3/PC_G_EU4" CO2="5958.14" CO="62.87" HC="0.43" NOx="2.39" PMx="0.11" fuel="1900.36" electricity="0.00" noise="67.69" route="!fukanglu_south_T1.9" type="vt_car" waiting="0.00" lane="E5_3" pos="317.35" speed="14.89" angle="89.98" x="339.87" y="-1.14"/>
        <vehicle id="up2down_211.0" eclass="HBEFA3/Bus" CO2="8100.14" CO="20.14" HC="5.19" NOx="74.27" PMx="2.10" fuel="2562.73" electricity="0.00" noise="70.38" route="rt_UP2DOWN" type="BUS_B" waiting="0.00" lane="E7_1" pos="111.14" speed="6.71" angle="180.00" x="398.25" y="-131.26"/>
        <vehicle id="w2e_106.0" eclass="HBEFA3/Bus" CO2="5286.11" CO="20.17" HC="4.85" NOx="60.75" PMx="2.01" fuel="1671.11" electricity="0.00" noise="67.11" route="rt_W2E" type="BUS_A" waiting="48.00" lane="E2_2" pos="296.11" speed="0.00" angle="90.03" x="-88.00" y="-5.23"/>
        <vehicle id="xingminlu_north_T1.3" eclass="HBEFA3/PC_G_EU4" CO2="2624.72" CO="164.78" HC="0.81" NOx="1.20" PMx="0.07" fuel="837.22" electricity="0.00" noise="55.94" route="!xingminlu_north_T1.3" type="vt_car" waiting="63.00" lane="E2_2" pos="303.61" speed="0.00" angle="90.03" x="-80.50" y="-5.23"/>
        <vehicle id="xingminlu_north_T1.4" eclass="HBEFA3/PC_G_EU4" CO2="2624.72" CO="164.78" HC="0.81" NOx="1.20" PMx="0.07" fuel="837.22" electricity="0.00" noise="55.94" route="!xingminlu_north_T1.4" type="vt_car" waiting="69.00" lane="E2_2" pos="311.11" speed="0.00" angle="90.03" x="-73.00" y="-5.24"/>
        <vehicle id="xingminlu_north_T1.5" eclass="HBEFA3/PC_G_EU4" CO2="2624.72" CO="164.78" HC="0.81" NOx="1.20" PMx="0.07" fuel="837.22" electricity="0.00" noise="55.94" route="!xingminlu_north_T1.5" type="vt_car" waiting="37.00" lane="E2_2" pos="281.61" speed="0.00" angle="90.03" x="-102.50" y="-5.22"/>
        <vehicle id="xingminlu_north_T1.6" eclass="HBEFA3/PC_G_EU4" CO2="2624.72" CO="164.78" HC="0.81" NOx="1.20" PMx="0.07" fuel="837.22" electricity="0.00" noise="55.94" route="!xingminlu_north_T1.6" type="vt_car" waiting="24.00" lane="-E3_2" pos="179.69" speed="0.00" angle="180.02" x="-403.11" y="22.91"/>
        <vehicle id="xingminlu_north_T1.7" eclass="HBEFA3/PC_G_EU4" CO2="2624.72" CO="164.78" HC="0.81" NOx="1.20" PMx="0.07" fuel="837.22" electricity="0.00" noise="55.94" route="!xingminlu_north_T1.7" type="vt_car" waiting="0.00" lane="-E3_1" pos="5.10" speed="0.00" angle="180.02" x="-407.06" y="197.50"/>
        <vehicle id="xingminlu_south_T1.1" eclass="HBEFA3/PC_G_EU4" CO2="3264.54" CO="21.77" HC="0.17" NOx="1.17" PMx="0.04" fuel="1041.25" electricity="0.00" noise="64.47" route="!xingminlu_south_T1.1" type="vt_car" waiting="0.00" lane="-E0_2" pos="100.76" speed="12.57" angle="270.00" x="-518.88" y="6.91"/>
        <vehicle id="xingminlu_south_T1.10" eclass="HBEFA3/PC_G_EU4" CO2="2624.72" CO="164.78" HC="0.81" NOx="1.20" PMx="0.07" fuel="837.22" electricity="0.00" noise="55.94" route="!xingminlu_south_T1.10" type="vt_car" waiting="23.00" lane="-E11_2" pos="170.50" speed="0.00" angle="0.00" x="-398.00" y="-429.50"/>
        <vehicle id="xingminlu_south_T1.11" eclass="HBEFA3/PC_G_EU4" CO2="0.00" CO="0.00" HC="0.00" NOx="0.00" PMx="0.00" fuel="0.00" electricity="0.00" noise="55.97" route="!xingminlu_south_T1.11" type="vt_car" waiting="0.00" lane="E17_2" pos="356.37" speed="9.06" angle="90.00" x="-26.63" y="-406.00"/>
        <vehicle id="xingminlu_south_T1.12" eclass="HBEFA3/PC_G_EU4" CO2="2624.72" CO="164.78" HC="0.81" NOx="1.20" PMx="0.07" fuel="837.22" electricity="0.00" noise="55.94" route="!xingminlu_south_T1.12" type="vt_car" waiting="22.00" lane="-E11_2" pos="163.00" speed="0.00" angle="0.00" x="-398.00" y="-437.00"/>
        <vehicle id="xingminlu_south_T1.13" eclass="HBEFA3/HDV" CO2="7380.56" CO="15.20" HC="0.00" NOx="84.89" PMx="2.21" fuel="2321.67" electricity="0.00" noise="67.11" route="!xingminlu_south_T1.13" type="vt_truck" waiting="16.00" lane="-E11_2" pos="155.50" speed="0.00" angle="0.00" x="-398.00" y="-444.50"/>
        <vehicle id="xingminlu_south_T1.14" eclass="HBEFA3/PC_G_EU4" CO2="3221.04" CO="7.93" HC="0.11" NOx="1.10" PMx="0.03" fuel="1027.37" electricity="0.00" noise="65.58" route="!xingminlu_south_T1.14" type="vt_car" waiting="0.00" lane="-E11_1" pos="151.46" speed="14.62" angle="0.00" x="-394.00" y="-448.54"/>
        <vehicle id="xingminlu_south_T1.2" eclass="HBEFA3/PC_G_EU4" CO2="2958.47" CO="10.41" HC="0.11" NOx="1.01" PMx="0.03" fuel="943.62" electricity="0.00" noise="64.64" route="!xingminlu_south_T1.2" type="vt_car" waiting="0.00" lane="E19_2" pos="316.57" speed="13.31" angle="90.00" x="733.94" y="-406.00"/>
        <vehicle id="xingminlu_south_T1.3" eclass="HBEFA3/HDV" CO2="9794.18" CO="17.81" HC="0.00" NOx="102.59" PMx="2.47" fuel="3080.94" electricity="0.00" noise="73.06" route="!xingminlu_south_T1.3" type="vt_truck" waiting="0.00" lane="-E1_2" pos="160.39" speed="0.99" angle="359.99" x="-399.12" y="-42.61"/>
        <vehicle id="xingminlu_south_T1.5" eclass="HBEFA3/PC_G_EU4" CO2="3241.22" CO="147.35" HC="0.75" NOx="1.45" PMx="0.07" fuel="1033.84" electricity="0.00" noise="64.43" route="!xingminlu_south_T1.5" type="vt_car" waiting="0.00" lane=":J15_17_0" pos="0.78" speed="1.78" angle="91.26" x="383.77" y="-410.11"/>
        <vehicle id="xingminlu_south_T1.7" eclass="HBEFA3/PC_G_EU4" CO2="2624.72" CO="164.78" HC="0.81" NOx="1.20" PMx="0.07" fuel="837.22" electricity="0.00" noise="55.94" route="!xingminlu_south_T1.7" type="vt_car" waiting="12.00" lane="-E1_2" pos="127.29" speed="0.00" angle="359.99" x="-399.11" y="-75.71"/>
        <vehicle id="xingminlu_south_T1.8" eclass="HBEFA3/PC_G_EU4" CO2="3354.21" CO="18.14" HC="0.16" NOx="1.20" PMx="0.04" fuel="1069.84" electricity="0.00" noise="64.98" route="!xingminlu_south_T1.8" type="vt_car" waiting="0.00" lane="-E16_2" pos="323.51" speed="13.37" angle="270.00" x="-740.60" y="-394.00"/>
        <vehicle id="xingminlu_south_T1.9" eclass="HBEFA3/PC_G_EU4" CO2="2624.72" CO="164.78" HC="0.81" NOx="1.20" PMx="0.07" fuel="837.22" electricity="0.00" noise="55.94" route="!xingminlu_south_T1.9" type="vt_car" waiting="26.00" lane="-E11_2" pos="178.00" speed="0.00" angle="0.00" x="-398.00" y="-422.00"/>
        <vehicle id="yuanlinlu_east.100" eclass="HBEFA3/PC_G_EU4" CO2="2624.72" CO="164.78" HC="0.81" NOx="1.20" PMx="0.07" fuel="837.22" electricity="0.00" noise="55.94" route="!yuanlinlu_east.100" type="vt_car" waiting="0.00" lane="E16_3" pos="5.10" speed="0.00" angle="90.00" x="-794.90" y="-402.00"/>
        <vehicle id="yuanlinlu_east.13" eclass="HBEFA3/PC_G_EU4" CO2="3224.75" CO="17.25" HC="0.15" NOx="1.14" PMx="0.04" fuel="1028.55" electricity="0.00" noise="64.73" route="!yuanlinlu_east.13" type="vt_car" waiting="0.00" lane="E19_2" pos="124.86" speed="13.10" angle="90.00" x="542.23" y="-406.00"/>
        <vehicle id="yuanlinlu_east.15" eclass="HBEFA3/PC_G_EU4" CO2="7976.53" CO="151.06" HC="0.88" NOx="3.49" PMx="0.17" fuel="2544.13" electricity="0.00" noise="70.87" route="!yuanlinlu_east.15" type="vt_car" waiting="0.00" lane=":J1_14_0" pos="20.53" speed="8.87" angle="320.55" x="-405.79" y="-1.45"/>
        <vehicle id="yuanlinlu_east.16" eclass="HBEFA3/PC_G_EU4" CO2="0.00" CO="0.00" HC="0.00" NOx="0.00" PMx="0.00" fuel="0.00" electricity="0.00" noise="42.80" route="!yuanlinlu_east.16" type="vt_car" waiting="0.00" lane="-E1_2" pos="181.12" speed="0.92" angle="359.99" x="-399.12" y="-21.88"/>
        <vehicle id="yuanlinlu_east.17" eclass="HBEFA3/PC_G_EU4" CO2="3104.95" CO="9.32" HC="0.11" NOx="1.06" PMx="0.03" fuel="990.34" electricity="0.00" noise="65.12" route="!yuanlinlu_east.17" type="vt_car" waiting="0.00" lane="E19_3" pos="112.44" speed="13.96" angle="90.00" x="529.81" y="-402.00"/>
        <vehicle id="yuanlinlu_east.18" eclass="HBEFA3/PC_G_EU4" CO2="3194.28" CO="137.16" HC="0.70" NOx="1.41" PMx="0.07" fuel="1018.87" electricity="0.00" noise="62.82" route="!yuanlinlu_east.18" type="vt_car" waiting="0.00" lane="-E1_2" pos="170.26" speed="2.36" angle="359.99" x="-399.12" y="-32.74"/>
        <vehicle id="yuanlinlu_east.19" eclass="HBEFA3/HDV" CO2="14736.65" CO="22.55" HC="0.00" NOx="130.03" PMx="2.83" fuel="4635.58" electricity="0.00" noise="73.87" route="!yuanlinlu_east.19" type="vt_truck" waiting="0.00" lane="E19_2" pos="68.90" speed="10.59" angle="90.00" x="486.27" y="-406.00"/>
        <vehicle id="yuanlinlu_east.21" eclass="HBEFA3/PC_G_EU4" CO2="1558.74" CO="1.18" HC="0.04" NOx="0.42" PMx="0.00" fuel="497.19" electricity="0.00" noise="61.76" route="!yuanlinlu_east.21" type="vt_car" waiting="0.00" lane="E19_2" pos="47.29" speed="10.74" angle="90.00" x="464.66" y="-406.00"/>
        <vehicle id="yuanlinlu_east.22" eclass="HBEFA3/PC_G_EU4" CO2="3458.53" CO="35.59" HC="0.24" NOx="1.30" PMx="0.04" fuel="1103.12" electricity="0.00" noise="64.01" route="!yuanlinlu_east.22" type="vt_car" waiting="0.00" lane="E19_2" pos="27.60" speed="11.30" angle="90.00" x="444.97" y="-406.00"/>
        <vehicle id="yuanlinlu_east.24" eclass="HBEFA3/PC_G_EU4" CO2="3133.42" CO="40.58" HC="0.26" NOx="1.18" PMx="0.04" fuel="999.43" electricity="0.00" noise="62.99" route="!yuanlinlu_east.24" type="vt_car" waiting="0.00" lane="E19_2" pos="7.23" speed="9.97" angle="90.00" x="424.60" y="-406.00"/>
        <vehicle id="yuanlinlu_east.25" eclass="HBEFA3/HDV" CO2="0.00" CO="0.00" HC="0.00" NOx="0.00" PMx="0.00" fuel="0.00" electricity="0.00" noise="66.91" route="!yuanlinlu_east.25" type="vt_truck" waiting="0.00" lane="E18_1" pos="348.10" speed="8.37" angle="90.00" x="369.23" y="-410.00"/>
        <vehicle id="yuanlinlu_east.29" eclass="HBEFA3/PC_G_EU4" CO2="0.00" CO="0.00" HC="0.00" NOx="0.00" PMx="0.00" fuel="0.00" electricity="0.00" noise="61.28" route="!yuanlinlu_east.29" type="vt_car" waiting="0.00" lane="-E4_1" pos="172.67" speed="11.93" angle="359.98" x="11.52" y="-27.71"/>
        <vehicle id="yuanlinlu_east.3" eclass="HBEFA3/PC_G_EU4" CO2="3904.64" CO="54.70" HC="0.34" NOx="1.54" PMx="0.06" fuel="1245.41" electricity="0.00" noise="64.07" route="!yuanlinlu_east.3" type="vt_car" waiting="0.00" lane="E19_1" pos="163.61" speed="10.16" angle="90.00" x="580.98" y="-410.00"/>
        <vehicle id="yuanlinlu_east.30" eclass="HBEFA3/PC_G_EU4" CO2="0.00" CO="0.00" HC="0.00" NOx="0.00" PMx="0.00" fuel="0.00" electricity="0.00" noise="61.40" route="!yuanlinlu_east.30" type="vt_car" waiting="0.00" lane="E18_2" pos="305.86" speed="11.72" angle="90.00" x="326.99" y="-406.00"/>
        <vehicle id="yuanlinlu_east.31" eclass="HBEFA3/PC_G_EU4" CO2="7635.38" CO="118.44" HC="0.72" NOx="3.26" PMx="0.15" fuel="2435.31" electricity="0.00" noise="69.11" route="!yuanlinlu_east.31" type="vt_car" waiting="0.00" lane="E18_2" pos="283.78" speed="11.69" angle="90.00" x="304.91" y="-406.00"/>
        <vehicle id="yuanlinlu_east.32" eclass="HBEFA3/HDV" CO2="27967.71" CO="37.25" HC="0.00" NOx="233.33" PMx="4.42" fuel="8797.87" electricity="0.00" noise="76.81" route="!yuanlinlu_east.32" type="vt_truck" waiting="0.00" lane="E18_2" pos="169.13" speed="10.65" angle="90.00" x="190.26" y="-406.00"/>
        <vehicle id="yuanlinlu_east.34" eclass="HBEFA3/PC_G_EU4" CO2="0.00" CO="0.00" HC="0.00" NOx="0.00" PMx="0.00" fuel="0.00" electricity="0.00" noise="64.09" route="!yuanlinlu_east.34" type="vt_car" waiting="0.00" lane="-E4_2" pos="124.84" speed="14.10" angle="359.98" x="7.54" y="-75.54"/>
        <vehicle id="yuanlinlu_east.36" eclass="HBEFA3/PC_G_EU4" CO2="4025.14" CO="30.86" HC="0.23" NOx="1.51" PMx="0.06" fuel="1283.83" electricity="0.00" noise="65.60" route="!yuanlinlu_east.36" type="vt_car" waiting="0.00" lane="E18_1" pos="193.10" speed="13.54" angle="90.00" x="214.23" y="-410.00"/>