<?xml version="1.0" encoding="UTF-8"?>

<!-- generated on 2024-04-17 16:57:45 by Eclipse SUMO sumo Version 1.19.0
<configuration xmlns:xsi="http://www.w3.org/2001/XMLSchema-instance" xsi:noNamespaceSchemaLocation="http://sumo.dlr.de/xsd/sumoConfiguration.xsd">

    <input>
        <net-file value="sumo_network/example42.net.xml"/>
        <route-files value="sumo_network/example42.rou.xml,sumo_network/bus.rou.xml,sumo_network/pedestrian.rou.xml"/>
        <additional-files value="sumo_network/busstops_def.add.xml,sumo_network/det_e3.add.xml,sumo_network/det_e2.add.xml,sumo_network/edgelane_dump.add.xml,sumo_network/signal-timing-dial.xml"/>
    </input>

    <output>
        <write-license value="false"/>
        <output-prefix value="OUTPUT-"/>
        <precision value="2"/>
        <human-readable-time value="false"/>
        <emission-output value="sumo_network/output/data_emission.xml"/>
        <emission-output.precision value="2"/>
        <queue-output value="sumo_network/output/data_Queue.xml"/>
        <queue-output.period value="300"/>
        <summary-output value="sumo_network/output/data_summary.xml"/>
        <summary-output.period value="300"/>
        <person-summary-output value="sumo_network/output/data_person_summary.xml"/>
        <personinfo-output value="sumo_network/output/data_personinfo.xml"/>
        <collision-output value="sumo_network/output/data_collision.xml"/>
        <edgedata-output value="sumo_network/output/data_edges.xml"/>
        <lanedata-output value="sumo_network/output/data_lanes.xml"/>
        <statistic-output value="sumo_network/output/data_statistic.xml"/>
    </output>

    <time>
        <begin value="0"/>
        <end value="3600"/>
        <step-length value="1"/>
    </time>

    <processing>
        <no-internal-links value="false"/>
        <ignore-route-errors value="true"/>
        <collision.action value="teleport"/>
        <intermodal-collision.action value="warn"/>
        <collision.stoptime value="0"/>
        <intermodal-collision.stoptime value="0"/>
        <collision.check-junctions value="false"/>
        <max-num-vehicles value="-1"/>
        <max-num-teleports value="-1"/>
        <time-to-teleport value="300"/>
        <time-to-teleport.remove value="false"/>
        <waiting-time-memory value="100"/>
        <max-depart-delay value="-1"/>
        <random-depart-offset value="0"/>
        <lanechange.duration value="0"/>
        <lanechange.overtake-right value="false"/>
        <tls.all-off value="false"/>
        <tls.yellow.min-decel value="3"/>
    </processing>

    <routing>
        <routing-algorithm value="dijkstra"/>
    </routing>

    <report>
        <verbose value="true"/>
        <no-warnings value="true"/>
        <log value="sumo_network/output/data_log.xml"/>
        <no-step-log value="true"/>
        <step-log.period value="300"/>
    </report>

    <emissions>
        <device.emissions.period value="300"/>
    </emissions>

    <traci_server>
        <remote-port value="8813"/>
    </traci_server>

    <mesoscopic>
        <mesosim value="false"/>
    </mesoscopic>

    <random_number>
        <random value="false"/>
        <seed value="23423"/>
    </random_number>

    <gui_only>
        <gui-settings-file value="sumo_network/viewsettings.xml"/>
        <start value="true"/>
        <demo value="false"/>
        <window-size value="800,600"/>
        <window-pos value="100,100"/>
    </gui_only>

</configuration>
-->

<emission-export xmlns:xsi="http://www.w3.org/2001/XMLSchema-instance" xsi:noNamespaceSchemaLocation="http://sumo.dlr.de/xsd/emission_file.xsd">
    <timestep time="0.00">
        <vehicle id="down2up_211.0" eclass="HBEFA3/Bus" CO2="5286.11" CO="20.17" HC="4.85" NOx="60.75" PMx="2.01" fuel="1671.11" electricity="0.00" noise="67.11" route="rt_DOWN2UP" type="BUS_A" waiting="0.00" lane="-E7_1" pos="12.10" speed="0.00" angle="360.00" x="410.25" y="-191.54"/>
        <vehicle id="feitianlu_north_T1.0" eclass="HBEFA3/PC_G_EU4" CO2="2624.72" CO="164.78" HC="0.81" NOx="1.20" PMx="0.07" fuel="837.22" electricity="0.00" noise="55.94" route="!feitianlu_north_T1.0" type="vt_car" waiting="0.00" lane="-E9_2" pos="5.10" speed="0.00" angle="180.02" x="402.32" y="202.61"/>
        <vehicle id="feitianlu_south_T1.0" eclass="HBEFA3/PC_G_EU4" CO2="2624.72" CO="164.78" HC="0.81" NOx="1.20" PMx="0.07" fuel="837.22" electricity="0.00" noise="55.94" route="!feitianlu_south_T1.0" type="vt_car" waiting="0.00" lane="-E7_2" pos="5.10" speed="0.00" angle="360.00" x="406.25" y="-198.54"/>
        <vehicle id="fukanglu_north_T1.0" eclass="HBEFA3/PC_G_EU4" CO2="2624.72" CO="164.78" HC="0.81" NOx="1.20" PMx="0.07" fuel="837.22" electricity="0.00" noise="55.94" route="!fukanglu_north_T1.0" type="vt_car" waiting="0.00" lane="-E6_1" pos="5.10" speed="0.00" angle="180.04" x="-8.35" y="199.74"/>
        <vehicle id="fukanglu_south_T1.0" eclass="HBEFA3/PC_G_EU4" CO2="2624.72" CO="164.78" HC="0.81" NOx="1.20" PMx="0.07" fuel="837.22" electricity="0.00" noise="55.94" route="!fukanglu_south_T1.0" type="vt_car" waiting="0.00" lane="-E4_2" pos="5.10" speed="0.00" angle="359.98" x="7.57" y="-195.43"/>
        <vehicle id="up2down_211.0" eclass="HBEFA3/Bus" CO2="5286.11" CO="20.17" HC="4.85" NOx="60.75" PMx="2.01" fuel="1671.11" electricity="0.00" noise="67.11" route="rt_UP2DOWN" type="BUS_B" waiting="0.00" lane="-E3_1" pos="12.10" speed="0.00" angle="180.02" x="-407.06" y="190.50"/>
        <vehicle id="w2e_106.0" eclass="HBEFA3/Bus" CO2="5286.11" CO="20.17" HC="4.85" NOx="60.75" PMx="2.01" fuel="1671.11" electricity="0.00" noise="67.11" route="rt_W2E" type="BUS_A" waiting="0.00" lane="E0_1" pos="12.10" speed="0.00" angle="90.00" x="-767.75" y="-9.09"/>
        <vehicle id="xingminlu_north_T1.0" eclass="HBEFA3/PC_G_EU4" CO2="2624.72" CO="164.78" HC="0.81" NOx="1.20" PMx="0.07" fuel="837.22" electricity="0.00" noise="55.94" route="!xingminlu_north_T1.0" type="vt_car" waiting="0.00" lane="-E3_2" pos="5.10" speed="0.00" angle="180.02" x="-403.06" y="197.50"/>
        <vehicle id="xingminlu_south_T1.0" eclass="HBEFA3/PC_G_EU4" CO2="2624.72" CO="164.78" HC="0.81" NOx="1.20" PMx="0.07" fuel="837.22" electricity="0.00" noise="55.94" route="!xingminlu_south_T1.0" type="vt_car" waiting="0.00" lane="-E1_1" pos="5.10" speed="0.00" angle="359.99" x="-395.09" y="-198.05"/>
        <vehicle id="yuanlinlu_east_T1.0" eclass="HBEFA3/PC_G_EU4" CO2="2624.72" CO="164.78" HC="0.81" NOx="1.20" PMx="0.07" fuel="837.22" electricity="0.00" noise="55.94" route="!yuanlinlu_east_T1.0" type="vt_car" waiting="0.00" lane="E0_2" pos="5.10" speed="0.00" angle="90.00" x="-774.75" y="-5.09"/>
        <vehicle id="yuanlinlu_west_T1.0" eclass="HBEFA3/PC_G_EU4" CO2="2624.72" CO="164.78" HC="0.81" NOx="1.20" PMx="0.07" fuel="837.22" electricity="0.00" noise="55.94" route="!yuanlinlu_west_T1.0" type="vt_car" waiting="0.00" lane="-E8_1" pos="5.10" speed="0.00" angle="270.03" x="741.78" y="10.69"/>
    </timestep>
    <timestep time="300.00">
        <vehicle id="down2up_211.0" eclass="HBEFA3/Bus" CO2="13153.21" CO="27.78" HC="5.86" NOx="113.90" PMx="2.87" fuel="4161.14" electricity="0.00" noise="74.72" route="rt_DOWN2UP" type="BUS_A" waiting="0.00" lane="-E5_2" pos="330.17" speed="3.02" angle="269.98" x="57.07" y="6.75"/>
        <vehicle id="e2w_106.0" eclass="HBEFA3/Bus" CO2="5286.11" CO="20.17" HC="4.85" NOx="60.75" PMx="2.01" fuel="1671.11" electricity="0.00" noise="67.11" route="rt_E2W" type="BUS_B" waiting="0.00" lane="-E5_1" pos="167.48" speed="0.00" angle="269.98" x="219.75" y="10.82"/>
        <vehicle id="feitianlu_north_T1.12" eclass="HBEFA3/PC_G_EU4" CO2="0.00" CO="0.00" HC="0.00" NOx="0.00" PMx="0.00" fuel="0.00" electricity="0.00" noise="47.09" route="!feitianlu_north_T1.12" type="vt_car" waiting="0.00" lane=":J6_22_0" pos="2.60" speed="4.04" angle="99.82" x="419.81" y="-0.87"/>
        <vehicle id="feitianlu_north_T1.13" eclass="HBEFA3/PC_G_EU4" CO2="5181.87" CO="92.52" HC="0.54" NOx="2.17" PMx="0.10" fuel="1652.78" electricity="0.00" noise="65.83" route="!feitianlu_north_T1.13" type="vt_car" waiting="0.00" lane=":J6_4_0" pos="19.00" speed="8.97" angle="149.05" x="407.68" y="4.14"/>
        <vehicle id="feitianlu_north_T1.14" eclass="HBEFA3/PC_G_EU4" CO2="5603.85" CO="125.37" HC="0.70" NOx="2.43" PMx="0.11" fuel="1787.38" electricity="0.00" noise="67.47" route="!feitianlu_north_T1.14" type="vt_car" waiting="0.00" lane=":J6_3_0" pos="0.56" speed="6.79" angle="180.02" x="402.25" y="21.33"/>
        <vehicle id="feitianlu_north_T1.15" eclass="HBEFA3/PC_G_EU4" CO2="2624.72" CO="164.78" HC="0.81" NOx="1.20" PMx="0.07" fuel="837.22" electricity="0.00" noise="55.94" route="!feitianlu_north_T1.15" type="vt_car" waiting="0.00" lane="-E9_2" pos="5.10" speed="0.00" angle="180.02" x="402.32" y="202.61"/>
        <vehicle id="feitianlu_north_T1.9" eclass="HBEFA3/PC_G_EU4" CO2="2848.54" CO="138.98" HC="0.70" NOx="1.26" PMx="0.06" fuel="908.60" electricity="0.00" noise="60.69" route="!feitianlu_north_T1.9" type="vt_car" waiting="0.00" lane="-E5_2" pos="312.54" speed="1.80" angle="269.98" x="74.70" y="6.76"/>
        <vehicle id="feitianlu_south_T1.12" eclass="HBEFA3/PC_G_EU4" CO2="3375.30" CO="26.30" HC="0.20" NOx="1.23" PMx="0.04" fuel="1076.57" electricity="0.00" noise="64.41" route="!feitianlu_south_T1.12" type="vt_car" waiting="0.00" lane="E8_1" pos="109.93" speed="12.26" angle="90.03" x="531.17" y="-9.18"/>
        <vehicle id="feitianlu_south_T1.13" eclass="HBEFA3/PC_G_EU4" CO2="9676.01" CO="143.59" HC="0.89" NOx="4.16" PMx="0.20" fuel="3086.16" electricity="0.00" noise="71.13" route="!feitianlu_south_T1.13" type="vt_car" waiting="0.00" lane="-E7_1" pos="60.04" speed="14.13" angle="360.00" x="410.25" y="-143.60"/>
        <vehicle id="fukanglu_north_T1.15" eclass="HBEFA3/PC_G_EU4" CO2="3735.58" CO="38.62" HC="0.26" NOx="1.42" PMx="0.05" fuel="1191.48" electricity="0.00" noise="64.45" route="!fukanglu_north_T1.15" type="vt_car" waiting="0.00" lane="E7_2" pos="154.60" speed="11.63" angle="180.00" x="402.25" y="-174.72"/>
        <vehicle id="fukanglu_north_T1.16" eclass="HBEFA3/PC_G_EU4" CO2="2624.69" CO="164.77" HC="0.81" NOx="1.20" PMx="0.07" fuel="837.21" electricity="0.00" noise="55.94" route="!fukanglu_north_T1.16" type="vt_car" waiting="4.00" lane="E5_2" pos="363.71" speed="0.00" angle="89.98" x="386.24" y="-5.12"/>
        <vehicle id="fukanglu_north_T1.17" eclass="HBEFA3/PC_G_EU4" CO2="2454.76" CO="17.41" HC="0.13" NOx="0.83" PMx="0.02" fuel="782.97" electricity="0.00" noise="62.80" route="!fukanglu_north_T1.17" type="vt_car" waiting="0.00" lane="-E2_3" pos="233.94" speed="11.00" angle="270.03" x="-253.43" y="2.84"/>
        <vehicle id="fukanglu_north_T1.18" eclass="HBEFA3/PC_G_EU4" CO2="2624.72" CO="164.78" HC="0.81" NOx="1.20" PMx="0.07" fuel="837.22" electricity="0.00" noise="55.94" route="!fukanglu_north_T1.18" type="vt_car" waiting="11.00" lane="-E6_3" pos="182.08" speed="0.00" angle="180.04" x="-0.48" y="22.75"/>
        <vehicle id="fukanglu_north_T1.19" eclass="HBEFA3/HDV" CO2="0.00" CO="0.00" HC="0.00" NOx="0.00" PMx="0.00" fuel="0.00" electricity="0.00" noise="69.69" route="!fukanglu_north_T1.19" type="vt_truck" waiting="0.00" lane="-E6_1" pos="142.72" speed="9.95" angle="180.04" x="-8.45" y="62.12"/>
        <vehicle id="fukanglu_north_T1.20" eclass="HBEFA3/PC_G_EU4" CO2="2624.72" CO="164.78" HC="0.81" NOx="1.20" PMx="0.07" fuel="837.22" electricity="0.00" noise="55.94" route="!fukanglu_north_T1.20" type="vt_car" waiting="0.00" lane="-E6_3" pos="5.10" speed="0.00" angle="180.04" x="-0.35" y="199.73"/>
        <vehicle id="fukanglu_south_T1.10" eclass="HBEFA3/PC_G_EU4" CO2="1425.44" CO="0.00" HC="0.00" NOx="0.31" PMx="0.00" fuel="454.67" electricity="0.00" noise="62.79" route="!fukanglu_south_T1.10" type="vt_car" waiting="0.00" lane="E8_1" pos="285.20" speed="12.23" angle="90.03" x="706.44" y="-9.29"/>
        <vehicle id="fukanglu_south_T1.11" eclass="HBEFA3/PC_G_EU4" CO2="2624.72" CO="164.78" HC="0.81" NOx="1.20" PMx="0.07" fuel="837.22" electricity="0.00" noise="55.94" route="!fukanglu_south_T1.11" type="vt_car" waiting="33.00" lane="-E4_3" pos="179.26" speed="0.00" angle="359.98" x="3.52" y="-21.27"/>
        <vehicle id="fukanglu_south_T1.12" eclass="HBEFA3/PC_G_EU4" CO2="0.00" CO="0.00" HC="0.00" NOx="0.00" PMx="0.00" fuel="0.00" electricity="0.00" noise="60.20" route="!fukanglu_south_T1.12" type="vt_car" waiting="0.00" lane="E5_1" pos="88.61" speed="10.37" angle="89.98" x="111.14" y="-9.23"/>
        <vehicle id="fukanglu_south_T1.13" eclass="HBEFA3/PC_G_EU4" CO2="5502.18" CO="71.24" HC="0.45" NOx="2.24" PMx="0.10" fuel="1754.94" electricity="0.00" noise="66.53" route="!fukanglu_south_T1.13" type="vt_car" waiting="0.00" lane="-E4_2" pos="57.73" speed="12.11" angle="359.98" x="7.55" y="-142.80"/>
        <vehicle id="up2down_211.0" eclass="HBEFA3/Bus" CO2="9093.93" CO="21.33" HC="5.32" NOx="81.45" PMx="2.23" fuel="2877.20" electricity="0.00" noise="70.72" route="rt_UP2DOWN" type="BUS_B" waiting="0.00" lane="E7_1" pos="117.75" speed="6.62" angle="180.00" x="398.25" y="-137.87"/>
        <vehicle id="w2e_106.0" eclass="HBEFA3/Bus" CO2="13428.63" CO="25.19" HC="5.87" NOx="110.06" PMx="2.67" fuel="4249.30" electricity="0.00" noise="73.14" route="rt_W2E" type="BUS_A" waiting="0.00" lane="E2_2" pos="324.14" speed="8.97" angle="90.03" x="-59.97" y="-5.24"/>
        <vehicle id="xingminlu_north_T1.5" eclass="HBEFA3/PC_G_EU4" CO2="3172.68" CO="34.54" HC="0.23" NOx="1.18" PMx="0.04" fuel="1011.95" electricity="0.00" noise="63.41" route="!xingminlu_north_T1.5" type="vt_car" waiting="0.00" lane="E5_2" pos="157.31" speed="10.73" angle="89.98" x="179.84" y="-5.20"/>
        <vehicle id="xingminlu_north_T1.6" eclass="HBEFA3/PC_G_EU4" CO2="2516.26" CO="156.52" HC="0.77" NOx="1.14" PMx="0.06" fuel="802.63" electricity="0.00" noise="52.88" route="!xingminlu_north_T1.6" type="vt_car" waiting="0.00" lane=":J1_4_0" pos="6.64" speed="0.34" angle="173.31" x="-402.34" y="15.32"/>
        <vehicle id="xingminlu_north_T1.7" eclass="HBEFA3/PC_G_EU4" CO2="2624.72" CO="164.78" HC="0.81" NOx="1.20" PMx="0.07" fuel="837.22" electricity="0.00" noise="55.94" route="!xingminlu_north_T1.7" type="vt_car" waiting="0.00" lane="-E3_2" pos="5.10" speed="0.00" angle="180.02" x="-403.06" y="197.50"/>
        <vehicle id="xingminlu_south_T1.11" eclass="HBEFA3/PC_G_EU4" CO2="3012.55" CO="32.66" HC="0.22" NOx="1.11" PMx="0.03" fuel="960.88" electricity="0.00" noise="63.15" route="!xingminlu_south_T1.11" type="vt_car" waiting="0.00" lane=":J1_13_0" pos="40.04" speed="10.56" angle="0.01" x="-399.11" y="19.95"/>
        <vehicle id="xingminlu_south_T1.12" eclass="HBEFA3/HDV" CO2="31691.57" CO="41.65" HC="0.00" NOx="266.22" PMx="4.95" fuel="9969.40" electricity="0.00" noise="78.55" route="!xingminlu_south_T1.12" type="vt_truck" waiting="0.00" lane=":J1_13_0" pos="12.94" speed="7.39" angle="0.01" x="-399.12" y="-7.16"/>
        <vehicle id="xingminlu_south_T1.13" eclass="HBEFA3/PC_G_EU4" CO2="3919.51" CO="105.60" HC="0.57" NOx="1.66" PMx="0.07" fuel="1250.17" electricity="0.00" noise="63.68" route="!xingminlu_south_T1.13" type="vt_car" waiting="0.00" lane="-E1_2" pos="177.61" speed="5.60" angle="359.99" x="-399.12" y="-25.54"/>
        <vehicle id="xingminlu_south_T1.14" eclass="HBEFA3/PC_G_EU4" CO2="0.00" CO="0.00" HC="0.00" NOx="0.00" PMx="0.00" fuel="0.00" electricity="0.00" noise="63.51" route="!xingminlu_south_T1.14" type="vt_car" waiting="0.00" lane="-E1_1" pos="143.20" speed="13.48" angle="359.99" x="-395.11" y="-59.95"/>
        <vehicle id="xingminlu_south_T1.6" eclass="HBEFA3/PC_G_EU4" CO2="2531.79" CO="155.15" HC="0.77" NOx="1.15" PMx="0.06" fuel="807.58" electricity="0.00" noise="54.68" route="!xingminlu_south_T1.6" type="vt_car" waiting="0.00" lane="E5_2" pos="348.61" speed="0.44" angle="89.98" x="371.14" y="-5.13"/>
        <vehicle id="yuanlinlu_east_T1.0" eclass="HBEFA3/PC_G_EU4" CO2="2623.76" CO="164.63" HC="0.81" NOx="1.20" PMx="0.07" fuel="836.92" electricity="0.00" noise="55.87" route="!yuanlinlu_east_T1.0" type="vt_car" waiting="2.00" lane="E5_2" pos="356.21" speed="0.01" angle="89.98" x="378.74" y="-5.12"/>
        <vehicle id="yuanlinlu_east_T1.100" eclass="HBEFA3/PC_G_EU4" CO2="2624.72" CO="164.78" HC="0.81" NOx="1.20" PMx="0.07" fuel="837.22" electricity="0.00" noise="55.94" route="!yuanlinlu_east_T1.100" type="vt_car" waiting="0.00" lane="E0_2" pos="5.10" speed="0.00" angle="90.00" x="-774.75" y="-5.09"/>
        <vehicle id="yuanlinlu_east_T1.12" eclass="HBEFA3/PC_G_EU4" CO2="3648.29" CO="19.21" HC="0.17" NOx="1.31" PMx="0.05" fuel="1163.64" electricity="0.00" noise="65.63" route="!yuanlinlu_east_T1.12" type="vt_car" waiting="0.00" lane="E5_2" pos="282.67" speed="14.18" angle="89.98" x="305.20" y="-5.15"/>
        <vehicle id="yuanlinlu_east_T1.13" eclass="HBEFA3/PC_G_EU4" CO2="2192.70" CO="0.00" HC="0.02" NOx="0.65" PMx="0.01" fuel="699.38" electricity="0.00" noise="64.08" route="!yuanlinlu_east_T1.13" type="vt_car" waiting="0.00" lane="E5_2" pos="258.21" speed="13.28" angle="89.98" x="280.74" y="-5.16"/>
        <vehicle id="yuanlinlu_east_T1.14" eclass="HBEFA3/PC_G_EU4" CO2="0.00" CO="0.00" HC="0.00" NOx="0.00" PMx="0.00" fuel="0.00" electricity="0.00" noise="61.92" route="!yuanlinlu_east_T1.14" type="vt_car" waiting="0.00" lane="E5_2" pos="233.37" speed="13.04" angle="89.98" x="255.90" y="-5.17"/>
        <vehicle id="yuanlinlu_east_T1.21" eclass="HBEFA3/PC_G_EU4" CO2="5080.59" CO="70.74" HC="0.44" NOx="2.07" PMx="0.09" fuel="1620.47" electricity="0.00" noise="65.83" route="!yuanlinlu_east_T1.21" type="vt_car" waiting="0.00" lane="E5_2" pos="137.25" speed="11.09" angle="89.98" x="159.78" y="-5.21"/>
        <vehicle id="yuanlinlu_east_T1.22" eclass="HBEFA3/PC_G_EU4" CO2="1798.37" CO="10.32" HC="0.08" NOx="0.54" PMx="0.00" fuel="573.62" electricity="0.00" noise="61.63" route="!yuanlinlu_east_T1.22" type="vt_car" waiting="0.00" lane="E5_2" pos="93.96" speed="10.27" angle="89.98" x="116.49" y="-5.22"/>
        <vehicle id="yuanlinlu_east_T1.23" eclass="HBEFA3/HDV" CO2="30331.51" CO="39.88" HC="0.00" NOx="251.80" PMx="4.71" fuel="9541.48" electricity="0.00" noise="77.37" route="!yuanlinlu_east_T1.23" type="vt_truck" waiting="0.00" lane="E4_1" pos="56.03" speed="10.64" angle="179.98" x="-8.46" y="-76.30"/>
        <vehicle id="yuanlinlu_east_T1.27" eclass="HBEFA3/PC_G_EU4" CO2="0.00" CO="0.00" HC="0.00" NOx="0.00" PMx="0.00" fuel="0.00" electricity="0.00" noise="57.75" route="!yuanlinlu_east_T1.27" type="vt_car" waiting="0.00" lane="E2_2" pos="298.48" speed="8.10" angle="90.03" x="-85.63" y="-5.23"/>
        <vehicle id="yuanlinlu_east_T1.28" eclass="HBEFA3/PC_G_EU4" CO2="0.00" CO="0.00" HC="0.00" NOx="0.00" PMx="0.00" fuel="0.00" electricity="0.00" noise="46.81" route="!yuanlinlu_east_T1.28" type="vt_car" waiting="0.00" lane="E2_3" pos="363.31" speed="2.27" angle="90.03" x="-20.80" y="-1.26"/>
        <vehicle id="yuanlinlu_east_T1.29" eclass="HBEFA3/HDV" CO2="16153.61" CO="24.25" HC="0.00" NOx="142.89" PMx="3.04" fuel="5081.37" electricity="0.00" noise="73.48" route="!yuanlinlu_east_T1.29" type="vt_truck" waiting="0.00" lane="E2_2" pos="282.51" speed="9.05" angle="90.03" x="-101.60" y="-5.22"/>
        <vehicle id="yuanlinlu_east_T1.3" eclass="HBEFA3/PC_G_EU4" CO2="0.00" CO="0.00" HC="0.00" NOx="0.00" PMx="0.00" fuel="0.00" electricity="0.00" noise="60.89" route="!yuanlinlu_east_T1.3" type="vt_car" waiting="0.00" lane="E5_1" pos="292.59" speed="9.77" angle="89.98" x="315.12" y="-9.15"/>
        <vehicle id="yuanlinlu_east_T1.31" eclass="HBEFA3/PC_G_EU4" CO2="0.00" CO="0.00" HC="0.00" NOx="0.00" PMx="0.00" fuel="0.00" electricity="0.00" noise="62.65" route="!yuanlinlu_east_T1.31" type="vt_car" waiting="0.00" lane="E4_1" pos="160.87" speed="13.82" angle="179.98" x="-8.44" y="-181.14"/>
        <vehicle id="yuanlinlu_east_T1.32" eclass="HBEFA3/PC_G_EU4" CO2="0.00" CO="0.00" HC="0.00" NOx="0.00" PMx="0.00" fuel="0.00" electricity="0.00" noise="59.38" route="!yuanlinlu_east_T1.32" type="vt_car" waiting="0.00" lane="E2_2" pos="262.71" speed="8.66" angle="90.03" x="-121.40" y="-5.22"/>
        <vehicle id="yuanlinlu_east_T1.33" eclass="HBEFA3/PC_G_EU4" CO2="0.00" CO="0.00" HC="0.00" NOx="0.00" PMx="0.00" fuel="0.00" electricity="0.00" noise="62.12" route="!yuanlinlu_east_T1.33" type="vt_car" waiting="0.00" lane="E2_3" pos="266.10" speed="11.49" angle="90.03" x="-118.01" y="-1.22"/>
        <vehicle id="yuanlinlu_east_T1.35" eclass="HBEFA3/PC_G_EU4" CO2="0.00" CO="0.00" HC="0.00" NOx="0.00" PMx="0.00" fuel="0.00" electricity="0.00" noise="64.30" route="!yuanlinlu_east_T1.35" type="vt_car" waiting="0.00" lane="E2_1" pos="351.36" speed="14.55" angle="90.03" x="-32.75" y="-9.25"/>
        <vehicle id="yuanlinlu_east_T1.36" eclass="HBEFA3/HDV" CO2="22659.34" CO="31.38" HC="0.00" NOx="192.30" PMx="3.79" fuel="7127.95" electricity="0.00" noise="75.48" route="!yuanlinlu_east_T1.36" type="vt_truck" waiting="0.00" lane="E2_2" pos="216.23" speed="10.27" angle="90.03" x="-167.88" y="-5.19"/>
        <vehicle id="yuanlinlu_east_T1.40" eclass="HBEFA3/PC_G_EU4" CO2="0.00" CO="0.00" HC="0.00" NOx="0.00" PMx="0.00" fuel="0.00" electricity="0.00" noise="63.51" route="!yuanlinlu_east_T1.40" type="vt_car" waiting="0.00" lane="E2_3" pos="242.25" speed="13.38" angle="90.03" x="-141.86" y="-1.21"/>
        <vehicle id="yuanlinlu_east_T1.41" eclass="HBEFA3/PC_G_EU4" CO2="0.00" CO="0.00" HC="0.00" NOx="0.00" PMx="0.00" fuel="0.00" electricity="0.00" noise="57.84" route="!yuanlinlu_east_T1.41" type="vt_car" waiting="0.00" lane="E2_2" pos="194.36" speed="9.17" angle="90.03" x="-189.75" y="-5.19"/>
        <vehicle id="yuanlinlu_east_T1.42" eclass="HBEFA3/PC_G_EU4" CO2="0.00" CO="0.00" HC="0.00" NOx="0.00" PMx="0.00" fuel="0.00" electricity="0.00" noise="58.71" route="!yuanlinlu_east_T1.42" type="vt_car" waiting="0.00" lane="E2_2" pos="175.52" speed="10.41" angle="90.03" x="-208.59" y="-5.18"/>
        <vehicle id="yuanlinlu_east_T1.44" eclass="HBEFA3/PC_G_EU4" CO2="0.00" CO="0.00" HC="0.00" NOx="0.00" PMx="0.00" fuel="0.00" electricity="0.00" noise="48.93" route="!yuanlinlu_east_T1.44" type="vt_car" waiting="0.00" lane="E2_3" pos="351.68" speed="5.02" angle="90.03" x="-32.43" y="-1.25"/>
        <vehicle id="yuanlinlu_east_T1.48" eclass="HBEFA3/PC_G_EU4" CO2="3659.56" CO="23.75" HC="0.19" NOx="1.34" PMx="0.05" fuel="1167.23" electricity="0.00" noise="65.28" route="!yuanlinlu_east_T1.48" type="vt_car" waiting="0.00" lane="E2_3" pos="177.39" speed="13.48" angle="90.03" x="-206.72" y="-1.18"/>
        <vehicle id="yuanlinlu_east_T1.49" eclass="HBEFA3/PC_G_EU4" CO2="0.00" CO="0.00" HC="0.00" NOx="0.00" PMx="0.00" fuel="0.00" electricity="0.00" noise="61.83" route="!yuanlinlu_east_T1.49" type="vt_car" waiting="0.00" lane="E2_3" pos="154.98" speed="12.47" angle="90.03" x="-229.13" y="-1.17"/>
        <vehicle id="yuanlinlu_east_T1.5" eclass="HBEFA3/PC_G_EU4" CO2="0.00" CO="0.00" HC="0.00" NOx="0.00" PMx="0.00" fuel="0.00" electricity="0.00" noise="44.44" route="!yuanlinlu_east_T1.5" type="vt_car" waiting="0.00" lane="E5_3" pos="363.41" speed="2.43" angle="89.98" x="385.93" y="-1.12"/>
        <vehicle id="yuanlinlu_east_T1.51" eclass="HBEFA3/PC_G_EU4" CO2="0.00" CO="0.00" HC="0.00" NOx="0.00" PMx="0.00" fuel="0.00" electricity="0.00" noise="62.99" route="!yuanlinlu_east_T1.51" type="vt_car" waiting="0.00" lane="E2_2" pos="138.82" speed="13.66" angle="90.03" x="-245.29" y="-5.16"/>
        <vehicle id="yuanlinlu_east_T1.52" eclass="HBEFA3/PC_G_EU4" CO2="2049.56" CO="0.00" HC="0.00" NOx="0.56" PMx="0.00" fuel="653.73" electricity="0.00" noise="64.53" route="!yuanlinlu_east_T1.52" type="vt_car" waiting="0.00" lane="E2_2" pos="113.16" speed="14.10" angle="90.03" x="-270.95" y="-5.15"/>
        <vehicle id="yuanlinlu_east_T1.53" eclass="HBEFA3/PC_G_EU4" CO2="1882.42" CO="0.00" HC="0.00" NOx="0.49" PMx="0.00" fuel="600.42" electricity="0.00" noise="64.19" route="!yuanlinlu_east_T1.53" type="vt_car" waiting="0.00" lane="E2_3" pos="89.07" speed="13.74" angle="90.03" x="-295.04" y="-1.14"/>
        <vehicle id="yuanlinlu_east_T1.54" eclass="HBEFA3/PC_G_EU4" CO2="2624.72" CO="164.78" HC="0.81" NOx="1.20" PMx="0.07" fuel="837.22" electricity="0.00" noise="55.94" route="!yuanlinlu_east_T1.54" type="vt_car" waiting="4.00" lane="E0_2" pos="360.73" speed="0.00" angle="90.00" x="-419.12" y="-5.09"/>
        <vehicle id="yuanlinlu_east_T1.55" eclass="HBEFA3/PC_G_EU4" CO2="2624.06" CO="164.68" HC="0.81" NOx="1.20" PMx="0.07" fuel="837.01" electricity="0.00" noise="55.63" route="!yuanlinlu_east_T1.55" type="vt_car" waiting="2.00" lane="E0_2" pos="353.23" speed="0.00" angle="90.00" x="-426.62" y="-5.09"/>
        <vehicle id="yuanlinlu_east_T1.56" eclass="HBEFA3/HDV" CO2="7445.69" CO="15.26" HC="0.00" NOx="85.24" PMx="2.21" fuel="2342.16" electricity="0.00" noise="67.13" route="!yuanlinlu_east_T1.56" type="vt_truck" waiting="0.00" lane="E0_2" pos="345.71" speed="0.14" angle="90.00" x="-434.14" y="-5.09"/>
        <vehicle id="yuanlinlu_east_T1.59" eclass="HBEFA3/PC_G_EU4" CO2="2540.63" CO="158.44" HC="0.78" NOx="1.16" PMx="0.06" fuel="810.40" electricity="0.00" noise="52.78" route="!yuanlinlu_east_T1.59" type="vt_car" waiting="0.00" lane="E0_2" pos="335.78" speed="0.26" angle="90.00" x="-444.07" y="-5.09"/>
        <vehicle id="yuanlinlu_east_T1.63" eclass="HBEFA3/PC_G_EU4" CO2="0.00" CO="0.00" HC="0.00" NOx="0.00" PMx="0.00" fuel="0.00" electricity="0.00" noise="45.06" route="!yuanlinlu_east_T1.63" type="vt_car" waiting="0.00" lane="E0_2" pos="316.85" speed="3.59" angle="90.00" x="-463.00" y="-5.09"/>
        <vehicle id="yuanlinlu_east_T1.67" eclass="HBEFA3/PC_G_EU4" CO2="0.00" CO="0.00" HC="0.00" NOx="0.00" PMx="0.00" fuel="0.00" electricity="0.00" noise="56.18" route="!yuanlinlu_east_T1.67" type="vt_car" waiting="0.00" lane="E0_2" pos="304.84" speed="8.84" angle="90.00" x="-475.01" y="-5.09"/>
        <vehicle id="yuanlinlu_east_T1.70" eclass="HBEFA3/PC_G_EU4" CO2="1795.75" CO="7.13" HC="0.07" NOx="0.53" PMx="0.00" fuel="572.78" electricity="0.00" noise="61.89" route="!yuanlinlu_east_T1.70" type="vt_car" waiting="0.00" lane="E0_2" pos="286.82" speed="10.62" angle="90.00" x="-493.03" y="-5.09"/>
        <vehicle id="yuanlinlu_east_T1.71" eclass="HBEFA3/PC_G_EU4" CO2="0.00" CO="0.00" HC="0.00" NOx="0.00" PMx="0.00" fuel="0.00" electricity="0.00" noise="46.21" route="!yuanlinlu_east_T1.71" type="vt_car" waiting="0.00" lane="E0_2" pos="327.32" speed="1.67" angle="90.00" x="-452.53" y="-5.09"/>
        <vehicle id="yuanlinlu_east_T1.73" eclass="HBEFA3/PC_G_EU4" CO2="2710.34" CO="26.14" HC="0.18" NOx="0.96" PMx="0.03" fuel="864.49" electricity="0.00" noise="62.83" route="!yuanlinlu_east_T1.73" type="vt_car" waiting="0.00" lane="E0_2" pos="267.19" speed="10.60" angle="90.00" x="-512.66" y="-5.09"/>
        <vehicle id="yuanlinlu_east_T1.75" eclass="HBEFA3/PC_G_EU4" CO2="8838.65" CO="153.00" HC="0.91" NOx="3.86" PMx="0.19" fuel="2819.10" electricity="0.00" noise="71.23" route="!yuanlinlu_east_T1.75" type="vt_car" waiting="0.00" lane="E0_2" pos="247.41" speed="10.52" angle="90.00" x="-532.44" y="-5.09"/>
        <vehicle id="yuanlinlu_east_T1.77" eclass="HBEFA3/PC_G_EU4" CO2="0.00" CO="0.00" HC="0.00" NOx="0.00" PMx="0.00" fuel="0.00" electricity="0.00" noise="59.53" route="!yuanlinlu_east_T1.77" type="vt_car" waiting="0.00" lane="E0_2" pos="228.11" speed="7.88" angle="90.00" x="-551.74" y="-5.09"/>
        <vehicle id="yuanlinlu_east_T1.79" eclass="HBEFA3/PC_G_EU4" CO2="0.00" CO="0.00" HC="0.00" NOx="0.00" PMx="0.00" fuel="0.00" electricity="0.00" noise="58.38" route="!yuanlinlu_east_T1.79" type="vt_car" waiting="0.00" lane="E0_2" pos="211.24" speed="7.57" angle="90.00" x="-568.61" y="-5.09"/>
        <vehicle id="yuanlinlu_east_T1.8" eclass="HBEFA3/PC_G_EU4" CO2="0.00" CO="0.00" HC="0.00" NOx="0.00" PMx="0.00" fuel="0.00" electricity="0.00" noise="43.95" route="!yuanlinlu_east_T1.8" type="vt_car" waiting="0.00" lane="E5_2" pos="340.51" speed="2.58" angle="89.98" x="363.04" y="-5.13"/>
        <vehicle id="yuanlinlu_east_T1.80" eclass="HBEFA3/PC_G_EU4" CO2="0.00" CO="0.00" HC="0.00" NOx="0.00" PMx="0.00" fuel="0.00" electricity="0.00" noise="55.58" route="!yuanlinlu_east_T1.80" type="vt_car" waiting="0.00" lane="E0_2" pos="195.14" speed="7.44" angle="90.00" x="-584.71" y="-5.09"/>
        <vehicle id="yuanlinlu_east_T1.81" eclass="HBEFA3/PC_G_EU4" CO2="8111.01" CO="146.41" HC="0.86" NOx="3.54" PMx="0.17" fuel="2587.02" electricity="0.00" noise="70.59" route="!yuanlinlu_east_T1.81" type="vt_car" waiting="0.00" lane="E0_2" pos="178.96" speed="9.61" angle="90.00" x="-600.89" y="-5.09"/>
        <vehicle id="yuanlinlu_east_T1.84" eclass="HBEFA3/PC_G_EU4" CO2="2472.82" CO="54.39" HC="0.30" NOx="0.93" PMx="0.03" fuel="788.74" electricity="0.00" noise="60.58" route="!yuanlinlu_east_T1.84" type="vt_car" waiting="0.00" lane="E0_2" pos="160.47" speed="7.34" angle="90.00" x="-619.38" y="-5.09"/>
        <vehicle id="yuanlinlu_east_T1.85" eclass="HBEFA3/PC_G_EU4" CO2="4678.49" CO="45.95" HC="0.32" NOx="1.82" PMx="0.07" fuel="1492.22" electricity="0.00" noise="66.05" route="!yuanlinlu_east_T1.85" type="vt_car" waiting="0.00" lane="E1_1" pos="140.22" speed="13.29" angle="179.99" x="-407.10" y="-160.32"/>
        <vehicle id="yuanlinlu_east_T1.86" eclass="HBEFA3/HDV" CO2="28854.42" CO="38.52" HC="0.00" NOx="244.45" PMx="4.62" fuel="9076.88" electricity="0.00" noise="77.70" route="!yuanlinlu_east_T1.86" type="vt_truck" waiting="0.00" lane="E1_1" pos="10.86" speed="7.04" angle="179.99" x="-407.12" y="-30.96"/>