<?xml version="1.0" encoding="UTF-8"?>

<!-- generated on 2024-10-17 10:33:57 by Eclipse SUMO GUI Version 1.20.0
<configuration xmlns:xsi="http://www.w3.org/2001/XMLSchema-instance" xsi:noNamespaceSchemaLocation="http://sumo.dlr.de/xsd/sumoConfiguration.xsd">

    <input>
        <net-file value="C:\school\study\DRL2.0-2024\2024\DDQN-DNN\sumo_network\example42.net.xml"/>
        <route-files value="C:\school\study\DRL2.0-2024\2024\DDQN-DNN\sumo_network\example42.rou.xml,C:\school\study\DRL2.0-2024\2024\DDQN-DNN\sumo_network\bus.rou.xml,C:\school\study\DRL2.0-2024\2024\DDQN-DNN\sumo_network\pedestrian.rou.xml"/>
        <additional-files value="C:\school\study\DRL2.0-2024\2024\DDQN-DNN\sumo_network\busstops_def.add.xml,C:\school\study\DRL2.0-2024\2024\DDQN-DNN\sumo_network\det_e3.add.xml,C:\school\study\DRL2.0-2024\2024\DDQN-DNN\sumo_network\det_e2.add.xml,C:\school\study\DRL2.0-2024\2024\DDQN-DNN\sumo_network\edgelane_dump.add.xml,C:\school\study\DRL2.0-2024\2024\DDQN-DNN\sumo_network\signal-timing-dial.xml"/>
    </input>

    <output>
        <write-license value="false"/>
        <output-prefix value="OUTPUT-"/>
        <precision value="2"/>
        <human-readable-time value="false"/>
        <emission-output value="C:\school\study\DRL2.0-2024\2024\DDQN-DNN\sumo_network\output/data_emission.xml"/>
        <emission-output.precision value="2"/>
        <queue-output value="C:\school\study\DRL2.0-2024\2024\DDQN-DNN\sumo_network\output/data_Queue.xml"/>
        <queue-output.period value="300"/>
        <summary-output value="C:\school\study\DRL2.0-2024\2024\DDQN-DNN\sumo_network\output/data_summary.xml"/>
        <summary-output.period value="300"/>
        <person-summary-output value="C:\school\study\DRL2.0-2024\2024\DDQN-DNN\sumo_network\output/data_person_summary.xml"/>
        <personinfo-output value="C:\school\study\DRL2.0-2024\2024\DDQN-DNN\sumo_network\output/data_personinfo.xml"/>
        <collision-output value="C:\school\study\DRL2.0-2024\2024\DDQN-DNN\sumo_network\output/data_collision.xml"/>
        <edgedata-output value="C:\school\study\DRL2.0-2024\2024\DDQN-DNN\sumo_network\output/data_edges.xml"/>
        <lanedata-output value="C:\school\study\DRL2.0-2024\2024\DDQN-DNN\sumo_network\output/data_lanes.xml"/>
        <statistic-output value="C:\school\study\DRL2.0-2024\2024\DDQN-DNN\sumo_network\output/data_statistic.xml"/>
    </output>

    <time>
        <begin value="0"/>
        <end value="3600"/>
        <step-length value="1"/>
    </time>

    <processing>
        <no-internal-links value="false"/>
        <ignore-route-errors value="true"/>
        <collision.action value="teleport"/>
        <intermodal-collision.action value="warn"/>
        <collision.stoptime value="0"/>
        <intermodal-collision.stoptime value="0"/>
        <collision.check-junctions value="false"/>
        <max-num-vehicles value="-1"/>
        <max-num-teleports value="-1"/>
        <time-to-teleport value="300"/>
        <time-to-teleport.remove value="false"/>
        <waiting-time-memory value="100"/>
        <max-depart-delay value="-1"/>
        <random-depart-offset value="0"/>
        <lanechange.duration value="0"/>
        <lanechange.overtake-right value="false"/>
        <tls.all-off value="false"/>
        <tls.yellow.min-decel value="3"/>
    </processing>

    <routing>
        <routing-algorithm value="dijkstra"/>
    </routing>

    <report>
        <verbose value="true"/>
        <no-warnings value="true"/>
        <log value="C:\school\study\DRL2.0-2024\2024\DDQN-DNN\sumo_network\output/data_log.xml"/>
        <no-step-log value="true"/>
        <step-log.period value="300"/>
    </report>

    <emissions>
        <device.emissions.period value="300"/>
    </emissions>

    <mesoscopic>
        <mesosim value="false"/>
    </mesoscopic>

    <random_number>
        <random value="false"/>
        <seed value="23423"/>
    </random_number>

    <gui_only>
        <gui-settings-file value="C:\school\study\DRL2.0-2024\2024\DDQN-DNN\sumo_network\viewsettings.xml"/>
        <start value="false"/>
        <demo value="false"/>
        <window-size value="800,600"/>
        <window-pos value="100,100"/>
    </gui_only>

</configuration>
-->

<queue-export xmlns:xsi="http://www.w3.org/2001/XMLSchema-instance" xsi:noNamespaceSchemaLocation="http://sumo.dlr.de/xsd/queue_file.xsd">
</queue-export>
