<?xml version="1.0" encoding="UTF-8"?>

<!-- generated on 2024-03-26 16:16:14 by Eclipse SUMO sumo Version 1.19.0
<configuration xmlns:xsi="http://www.w3.org/2001/XMLSchema-instance" xsi:noNamespaceSchemaLocation="http://sumo.dlr.de/xsd/sumoConfiguration.xsd">

    <input>
        <net-file value="sumo_network/example42.net.xml"/>
        <route-files value="sumo_network/example42.rou.xml,sumo_network/bus.rou.xml,sumo_network/pedestrian.rou.xml"/>
        <additional-files value="sumo_network/busstops_def.add.xml,sumo_network/det_e3.add.xml,sumo_network/det_e2.add.xml,sumo_network/edgelane_dump.add.xml,sumo_network/signal-timing-dial.xml"/>
    </input>

    <output>
        <write-license value="false"/>
        <output-prefix value="OUTPUT-"/>
        <precision value="2"/>
        <human-readable-time value="false"/>
        <emission-output value="sumo_network/output/data_emission.xml"/>
        <emission-output.precision value="2"/>
        <queue-output value="sumo_network/output/data_Queue.xml"/>
        <queue-output.period value="300"/>
        <summary-output value="sumo_network/output/data_summary.xml"/>
        <summary-output.period value="300"/>
        <person-summary-output value="sumo_network/output/data_person_summary.xml"/>
        <personinfo-output value="sumo_network/output/data_personinfo.xml"/>
        <collision-output value="sumo_network/output/data_collision.xml"/>
        <edgedata-output value="sumo_network/output/data_edges.xml"/>
        <lanedata-output value="sumo_network/output/data_lanes.xml"/>
        <statistic-output value="sumo_network/output/data_statistic.xml"/>
    </output>

    <time>
        <begin value="0"/>
        <end value="3600"/>
        <step-length value="1"/>
    </time>

    <processing>
        <no-internal-links value="false"/>
        <ignore-route-errors value="true"/>
        <collision.action value="teleport"/>
        <intermodal-collision.action value="warn"/>
        <collision.stoptime value="0"/>
        <intermodal-collision.stoptime value="0"/>
        <collision.check-junctions value="false"/>
        <max-num-vehicles value="-1"/>
        <max-num-teleports value="-1"/>
        <time-to-teleport value="300"/>
        <time-to-teleport.remove value="false"/>
        <waiting-time-memory value="100"/>
        <max-depart-delay value="-1"/>
        <random-depart-offset value="0"/>
        <lanechange.duration value="0"/>
        <lanechange.overtake-right value="false"/>
        <tls.all-off value="false"/>
        <tls.yellow.min-decel value="3"/>
    </processing>

    <routing>
        <routing-algorithm value="dijkstra"/>
    </routing>

    <report>
        <verbose value="true"/>
        <no-warnings value="true"/>
        <log value="sumo_network/output/data_log.xml"/>
        <no-step-log value="true"/>
        <step-log.period value="300"/>
    </report>

    <emissions>
        <device.emissions.period value="300"/>
    </emissions>

    <traci_server>
        <remote-port value="8813"/>
    </traci_server>

    <mesoscopic>
        <mesosim value="false"/>
    </mesoscopic>

    <random_number>
        <random value="false"/>
        <seed value="23423"/>
    </random_number>

    <gui_only>
        <gui-settings-file value="sumo_network/viewsettings.xml"/>
        <start value="true"/>
        <demo value="false"/>
        <window-size value="800,600"/>
        <window-pos value="100,100"/>
    </gui_only>

</configuration>
-->

<emission-export xmlns:xsi="http://www.w3.org/2001/XMLSchema-instance" xsi:noNamespaceSchemaLocation="http://sumo.dlr.de/xsd/emission_file.xsd">
    <timestep time="0.00">
        <vehicle id="down2up_211.0" eclass="HBEFA3/Bus" CO2="5286.11" CO="20.17" HC="4.85" NOx="60.75" PMx="2.01" fuel="1671.11" electricity="0.00" noise="67.11" route="rt_DOWN2UP" type="BUS_A" waiting="0.00" lane="-E7_1" pos="12.10" speed="0.00" angle="360.00" x="410.25" y="-191.54"/>
        <vehicle id="feitianlu_north_T1.0" eclass="HBEFA3/PC_G_EU4" CO2="2624.72" CO="164.78" HC="0.81" NOx="1.20" PMx="0.07" fuel="837.22" electricity="0.00" noise="55.94" route="!feitianlu_north_T1.0" type="vt_car" waiting="0.00" lane="-E9_2" pos="5.10" speed="0.00" angle="180.02" x="402.32" y="202.61"/>
        <vehicle id="feitianlu_south_T1.0" eclass="HBEFA3/PC_G_EU4" CO2="2624.72" CO="164.78" HC="0.81" NOx="1.20" PMx="0.07" fuel="837.22" electricity="0.00" noise="55.94" route="!feitianlu_south_T1.0" type="vt_car" waiting="0.00" lane="-E7_2" pos="5.10" speed="0.00" angle="360.00" x="406.25" y="-198.54"/>
        <vehicle id="fukanglu_north_T1.0" eclass="HBEFA3/PC_G_EU4" CO2="2624.72" CO="164.78" HC="0.81" NOx="1.20" PMx="0.07" fuel="837.22" electricity="0.00" noise="55.94" route="!fukanglu_north_T1.0" type="vt_car" waiting="0.00" lane="-E6_1" pos="5.10" speed="0.00" angle="180.04" x="-8.35" y="199.74"/>
        <vehicle id="fukanglu_south_T1.0" eclass="HBEFA3/PC_G_EU4" CO2="2624.72" CO="164.78" HC="0.81" NOx="1.20" PMx="0.07" fuel="837.22" electricity="0.00" noise="55.94" route="!fukanglu_south_T1.0" type="vt_car" waiting="0.00" lane="-E4_2" pos="5.10" speed="0.00" angle="359.98" x="7.57" y="-195.43"/>
        <vehicle id="up2down_211.0" eclass="HBEFA3/Bus" CO2="5286.11" CO="20.17" HC="4.85" NOx="60.75" PMx="2.01" fuel="1671.11" electricity="0.00" noise="67.11" route="rt_UP2DOWN" type="BUS_B" waiting="0.00" lane="-E3_1" pos="12.10" speed="0.00" angle="180.02" x="-407.06" y="190.50"/>
        <vehicle id="w2e_106.0" eclass="HBEFA3/Bus" CO2="5286.11" CO="20.17" HC="4.85" NOx="60.75" PMx="2.01" fuel="1671.11" electricity="0.00" noise="67.11" route="rt_W2E" type="BUS_A" waiting="0.00" lane="E0_1" pos="12.10" speed="0.00" angle="90.00" x="-767.75" y="-9.09"/>
        <vehicle id="xingminlu_north_T1.0" eclass="HBEFA3/PC_G_EU4" CO2="2624.72" CO="164.78" HC="0.81" NOx="1.20" PMx="0.07" fuel="837.22" electricity="0.00" noise="55.94" route="!xingminlu_north_T1.0" type="vt_car" waiting="0.00" lane="-E3_2" pos="5.10" speed="0.00" angle="180.02" x="-403.06" y="197.50"/>
        <vehicle id="xingminlu_south_T1.0" eclass="HBEFA3/PC_G_EU4" CO2="2624.72" CO="164.78" HC="0.81" NOx="1.20" PMx="0.07" fuel="837.22" electricity="0.00" noise="55.94" route="!xingminlu_south_T1.0" type="vt_car" waiting="0.00" lane="-E1_1" pos="5.10" speed="0.00" angle="359.99" x="-395.09" y="-198.05"/>
        <vehicle id="yuanlinlu_east_T1.0" eclass="HBEFA3/PC_G_EU4" CO2="2624.72" CO="164.78" HC="0.81" NOx="1.20" PMx="0.07" fuel="837.22" electricity="0.00" noise="55.94" route="!yuanlinlu_east_T1.0" type="vt_car" waiting="0.00" lane="E0_2" pos="5.10" speed="0.00" angle="90.00" x="-774.75" y="-5.09"/>
        <vehicle id="yuanlinlu_west_T1.0" eclass="HBEFA3/PC_G_EU4" CO2="2624.72" CO="164.78" HC="0.81" NOx="1.20" PMx="0.07" fuel="837.22" electricity="0.00" noise="55.94" route="!yuanlinlu_west_T1.0" type="vt_car" waiting="0.00" lane="-E8_1" pos="5.10" speed="0.00" angle="270.03" x="741.78" y="10.69"/>
    </timestep>
    <timestep time="300.00">
        <vehicle id="down2up_211.0" eclass="HBEFA3/Bus" CO2="5286.11" CO="20.17" HC="4.85" NOx="60.75" PMx="2.01" fuel="1671.11" electricity="0.00" noise="67.11" route="rt_DOWN2UP" type="BUS_A" waiting="0.00" lane="E3_1" pos="155.00" speed="0.00" angle="0.02" x="-395.07" y="176.91"/>
        <vehicle id="e2w_106.0" eclass="HBEFA3/Bus" CO2="5286.11" CO="20.17" HC="4.85" NOx="60.75" PMx="2.01" fuel="1671.11" electricity="0.00" noise="67.11" route="rt_E2W" type="BUS_B" waiting="0.00" lane="-E5_1" pos="167.49" speed="0.00" angle="269.98" x="219.74" y="10.82"/>
        <vehicle id="feitianlu_north_T1.12" eclass="HBEFA3/PC_G_EU4" CO2="2612.29" CO="162.94" HC="0.80" NOx="1.20" PMx="0.07" fuel="833.26" electricity="0.00" noise="55.82" route="!feitianlu_north_T1.12" type="vt_car" waiting="1.00" lane=":J6_4_0" pos="0.65" speed="0.09" angle="179.16" x="402.33" y="21.25"/>
        <vehicle id="feitianlu_north_T1.13" eclass="HBEFA3/PC_G_EU4" CO2="2607.91" CO="162.14" HC="0.80" NOx="1.19" PMx="0.06" fuel="831.86" electricity="0.00" noise="55.98" route="!feitianlu_north_T1.13" type="vt_car" waiting="0.00" lane="-E9_2" pos="178.77" speed="0.13" angle="180.02" x="402.25" y="28.94"/>
        <vehicle id="feitianlu_north_T1.14" eclass="HBEFA3/PC_G_EU4" CO2="2571.75" CO="156.26" HC="0.77" NOx="1.17" PMx="0.06" fuel="820.32" electricity="0.00" noise="56.13" route="!feitianlu_north_T1.14" type="vt_car" waiting="0.00" lane="-E9_2" pos="171.01" speed="0.42" angle="180.02" x="402.26" y="36.70"/>
        <vehicle id="feitianlu_north_T1.15" eclass="HBEFA3/PC_G_EU4" CO2="2624.72" CO="164.78" HC="0.81" NOx="1.20" PMx="0.07" fuel="837.22" electricity="0.00" noise="55.94" route="!feitianlu_north_T1.15" type="vt_car" waiting="0.00" lane="-E9_2" pos="5.10" speed="0.00" angle="180.02" x="402.32" y="202.61"/>
        <vehicle id="feitianlu_south_T1.12" eclass="HBEFA3/PC_G_EU4" CO2="2469.23" CO="9.47" HC="0.10" NOx="0.81" PMx="0.02" fuel="787.59" electricity="0.00" noise="63.47" route="!feitianlu_south_T1.12" type="vt_car" waiting="0.00" lane="E8_1" pos="109.37" speed="12.02" angle="90.03" x="530.61" y="-9.18"/>
        <vehicle id="feitianlu_south_T1.13" eclass="HBEFA3/PC_G_EU4" CO2="9725.66" CO="144.13" HC="0.89" NOx="4.18" PMx="0.20" fuel="3102.00" electricity="0.00" noise="71.18" route="!feitianlu_south_T1.13" type="vt_car" waiting="0.00" lane="-E7_1" pos="59.09" speed="14.22" angle="360.00" x="410.25" y="-144.55"/>
        <vehicle id="fukanglu_north_T1.13" eclass="HBEFA3/PC_G_EU4" CO2="0.00" CO="0.00" HC="0.00" NOx="0.00" PMx="0.00" fuel="0.00" electricity="0.00" noise="61.94" route="!fukanglu_north_T1.13" type="vt_car" waiting="0.00" lane="E5_2" pos="257.43" speed="12.31" angle="89.98" x="279.96" y="-5.16"/>
        <vehicle id="fukanglu_north_T1.15" eclass="HBEFA3/PC_G_EU4" CO2="3375.27" CO="31.78" HC="0.22" NOx="1.25" PMx="0.04" fuel="1076.57" electricity="0.00" noise="64.05" route="!fukanglu_north_T1.15" type="vt_car" waiting="0.00" lane="E5_1" pos="212.40" speed="11.55" angle="89.98" x="234.93" y="-9.18"/>
        <vehicle id="fukanglu_north_T1.16" eclass="HBEFA3/PC_G_EU4" CO2="0.00" CO="0.00" HC="0.00" NOx="0.00" PMx="0.00" fuel="0.00" electricity="0.00" noise="61.78" route="!fukanglu_north_T1.16" type="vt_car" waiting="0.00" lane="E5_2" pos="88.91" speed="11.80" angle="89.98" x="111.44" y="-5.23"/>
        <vehicle id="fukanglu_north_T1.17" eclass="HBEFA3/PC_G_EU4" CO2="1961.18" CO="7.41" HC="0.08" NOx="0.60" PMx="0.01" fuel="625.54" electricity="0.00" noise="62.31" route="!fukanglu_north_T1.17" type="vt_car" waiting="0.00" lane="-E2_3" pos="236.99" speed="10.98" angle="270.03" x="-256.48" y="2.84"/>
        <vehicle id="fukanglu_north_T1.18" eclass="HBEFA3/PC_G_EU4" CO2="0.00" CO="0.00" HC="0.00" NOx="0.00" PMx="0.00" fuel="0.00" electricity="0.00" noise="61.06" route="!fukanglu_north_T1.18" type="vt_car" waiting="0.00" lane="E5_3" pos="60.40" speed="11.08" angle="89.98" x="82.93" y="-1.24"/>
        <vehicle id="fukanglu_north_T1.19" eclass="HBEFA3/HDV" CO2="0.00" CO="0.00" HC="0.00" NOx="0.00" PMx="0.00" fuel="0.00" electricity="0.00" noise="69.69" route="!fukanglu_north_T1.19" type="vt_truck" waiting="0.00" lane="-E6_1" pos="142.72" speed="9.95" angle="180.04" x="-8.45" y="62.12"/>
        <vehicle id="fukanglu_north_T1.20" eclass="HBEFA3/PC_G_EU4" CO2="2624.72" CO="164.78" HC="0.81" NOx="1.20" PMx="0.07" fuel="837.22" electricity="0.00" noise="55.94" route="!fukanglu_north_T1.20" type="vt_car" waiting="0.00" lane="-E6_3" pos="5.10" speed="0.00" angle="180.04" x="-0.35" y="199.73"/>
        <vehicle id="fukanglu_south_T1.10" eclass="HBEFA3/PC_G_EU4" CO2="2059.89" CO="0.00" HC="0.02" NOx="0.60" PMx="0.01" fuel="657.03" electricity="0.00" noise="63.68" route="!fukanglu_south_T1.10" type="vt_car" waiting="0.00" lane="E8_1" pos="293.85" speed="12.83" angle="90.03" x="715.09" y="-9.29"/>
        <vehicle id="fukanglu_south_T1.11" eclass="HBEFA3/PC_G_EU4" CO2="4633.81" CO="43.43" HC="0.31" NOx="1.80" PMx="0.07" fuel="1477.97" electricity="0.00" noise="66.11" route="!fukanglu_south_T1.11" type="vt_car" waiting="0.00" lane="-E2_3" pos="323.26" speed="13.54" angle="270.03" x="-342.75" y="2.88"/>
        <vehicle id="fukanglu_south_T1.12" eclass="HBEFA3/PC_G_EU4" CO2="0.00" CO="0.00" HC="0.00" NOx="0.00" PMx="0.00" fuel="0.00" electricity="0.00" noise="60.45" route="!fukanglu_south_T1.12" type="vt_car" waiting="0.00" lane="E5_1" pos="90.38" speed="10.60" angle="89.98" x="112.91" y="-9.23"/>
        <vehicle id="fukanglu_south_T1.13" eclass="HBEFA3/PC_G_EU4" CO2="1785.96" CO="1.97" HC="0.05" NOx="0.51" PMx="0.00" fuel="569.66" electricity="0.00" noise="62.31" route="!fukanglu_south_T1.13" type="vt_car" waiting="0.00" lane="-E4_2" pos="58.41" speed="11.20" angle="359.98" x="7.55" y="-142.12"/>
        <vehicle id="up2down_211.0" eclass="HBEFA3/Bus" CO2="10266.40" CO="22.61" HC="5.47" NOx="89.65" PMx="2.37" fuel="3248.25" electricity="0.00" noise="71.26" route="rt_UP2DOWN" type="BUS_B" waiting="0.00" lane="E7_1" pos="117.53" speed="6.78" angle="180.00" x="398.25" y="-137.65"/>
        <vehicle id="w2e_106.0" eclass="HBEFA3/Bus" CO2="4588.75" CO="19.30" HC="4.76" NOx="55.66" PMx="1.92" fuel="1450.45" electricity="0.00" noise="47.41" route="rt_W2E" type="BUS_A" waiting="0.00" lane="E2_2" pos="333.51" speed="0.12" angle="90.03" x="-50.60" y="-5.25"/>
        <vehicle id="xingminlu_north_T1.5" eclass="HBEFA3/PC_G_EU4" CO2="3518.65" CO="148.19" HC="0.76" NOx="1.57" PMx="0.08" fuel="1122.33" electricity="0.00" noise="65.90" route="!xingminlu_north_T1.5" type="vt_car" waiting="0.00" lane=":J3_18_0" pos="1.08" speed="2.08" angle="90.02" x="-18.41" y="-5.26"/>
        <vehicle id="xingminlu_north_T1.6" eclass="HBEFA3/PC_G_EU4" CO2="0.00" CO="0.00" HC="0.00" NOx="0.00" PMx="0.00" fuel="0.00" electricity="0.00" noise="45.48" route="!xingminlu_north_T1.6" type="vt_car" waiting="0.00" lane=":J1_22_0" pos="2.65" speed="3.75" angle="99.83" x="-385.50" y="-0.86"/>
        <vehicle id="xingminlu_north_T1.7" eclass="HBEFA3/PC_G_EU4" CO2="2624.72" CO="164.78" HC="0.81" NOx="1.20" PMx="0.07" fuel="837.22" electricity="0.00" noise="55.94" route="!xingminlu_north_T1.7" type="vt_car" waiting="0.00" lane="-E3_2" pos="5.10" speed="0.00" angle="180.02" x="-403.06" y="197.50"/>
        <vehicle id="xingminlu_south_T1.11" eclass="HBEFA3/PC_G_EU4" CO2="5998.94" CO="135.75" HC="0.76" NOx="2.62" PMx="0.12" fuel="1913.39" electricity="0.00" noise="68.60" route="!xingminlu_south_T1.11" type="vt_car" waiting="0.00" lane=":J1_13_0" pos="13.24" speed="6.60" angle="0.01" x="-399.12" y="-6.86"/>
        <vehicle id="xingminlu_south_T1.12" eclass="HBEFA3/HDV" CO2="27753.21" CO="37.54" HC="0.00" NOx="239.57" PMx="4.57" fuel="8730.52" electricity="0.00" noise="82.44" route="!xingminlu_south_T1.12" type="vt_truck" waiting="0.00" lane="-E1_2" pos="180.68" speed="3.85" angle="359.99" x="-399.12" y="-22.47"/>
        <vehicle id="xingminlu_south_T1.13" eclass="HBEFA3/PC_G_EU4" CO2="2656.86" CO="151.01" HC="0.75" NOx="1.20" PMx="0.06" fuel="847.47" electricity="0.00" noise="58.99" route="!xingminlu_south_T1.13" type="vt_car" waiting="0.00" lane="-E1_2" pos="166.61" speed="0.83" angle="359.99" x="-399.12" y="-36.54"/>
        <vehicle id="xingminlu_south_T1.14" eclass="HBEFA3/PC_G_EU4" CO2="0.00" CO="0.00" HC="0.00" NOx="0.00" PMx="0.00" fuel="0.00" electricity="0.00" noise="63.51" route="!xingminlu_south_T1.14" type="vt_car" waiting="0.00" lane="-E1_1" pos="144.51" speed="13.48" angle="359.99" x="-395.11" y="-58.64"/>
        <vehicle id="yuanlinlu_east_T1.100" eclass="HBEFA3/PC_G_EU4" CO2="2624.72" CO="164.78" HC="0.81" NOx="1.20" PMx="0.07" fuel="837.22" electricity="0.00" noise="55.94" route="!yuanlinlu_east_T1.100" type="vt_car" waiting="0.00" lane="E0_2" pos="5.10" speed="0.00" angle="90.00" x="-774.75" y="-5.09"/>
        <vehicle id="yuanlinlu_east_T1.21" eclass="HBEFA3/PC_G_EU4" CO2="2624.72" CO="164.78" HC="0.81" NOx="1.20" PMx="0.07" fuel="837.22" electricity="0.00" noise="55.94" route="!yuanlinlu_east_T1.21" type="vt_car" waiting="21.00" lane="E2_2" pos="356.12" speed="0.00" angle="90.03" x="-27.99" y="-5.26"/>
        <vehicle id="yuanlinlu_east_T1.22" eclass="HBEFA3/PC_G_EU4" CO2="2624.72" CO="164.78" HC="0.81" NOx="1.20" PMx="0.07" fuel="837.22" electricity="0.00" noise="55.94" route="!yuanlinlu_east_T1.22" type="vt_car" waiting="14.00" lane="E2_2" pos="348.62" speed="0.00" angle="90.03" x="-35.49" y="-5.25"/>
        <vehicle id="yuanlinlu_east_T1.23" eclass="HBEFA3/HDV" CO2="12185.08" CO="19.78" HC="0.00" NOx="111.03" PMx="2.54" fuel="3832.91" electricity="0.00" noise="72.89" route="!yuanlinlu_east_T1.23" type="vt_truck" waiting="0.00" lane="E4_1" pos="83.69" speed="9.79" angle="179.98" x="-8.46" y="-103.96"/>
        <vehicle id="yuanlinlu_east_T1.27" eclass="HBEFA3/PC_G_EU4" CO2="2624.72" CO="164.78" HC="0.81" NOx="1.20" PMx="0.07" fuel="837.22" electricity="0.00" noise="55.94" route="!yuanlinlu_east_T1.27" type="vt_car" waiting="9.00" lane="E2_2" pos="341.12" speed="0.00" angle="90.03" x="-42.99" y="-5.25"/>
        <vehicle id="yuanlinlu_east_T1.28" eclass="HBEFA3/PC_G_EU4" CO2="3628.29" CO="147.79" HC="0.76" NOx="1.62" PMx="0.08" fuel="1157.29" electricity="0.00" noise="66.23" route="!yuanlinlu_east_T1.28" type="vt_car" waiting="0.00" lane=":J3_19_0" pos="1.24" speed="2.25" angle="88.01" x="-18.26" y="-1.09"/>
        <vehicle id="yuanlinlu_east_T1.29" eclass="HBEFA3/HDV" CO2="0.00" CO="0.00" HC="0.00" NOx="0.00" PMx="0.00" fuel="0.00" electricity="0.00" noise="58.06" route="!yuanlinlu_east_T1.29" type="vt_truck" waiting="0.00" lane="E2_2" pos="317.51" speed="4.10" angle="90.03" x="-66.60" y="-5.24"/>
        <vehicle id="yuanlinlu_east_T1.32" eclass="HBEFA3/PC_G_EU4" CO2="0.00" CO="0.00" HC="0.00" NOx="0.00" PMx="0.00" fuel="0.00" electricity="0.00" noise="54.51" route="!yuanlinlu_east_T1.32" type="vt_car" waiting="0.00" lane="E2_2" pos="301.82" speed="7.24" angle="90.03" x="-82.29" y="-5.23"/>
        <vehicle id="yuanlinlu_east_T1.33" eclass="HBEFA3/PC_G_EU4" CO2="3753.98" CO="37.76" HC="0.26" NOx="1.42" PMx="0.05" fuel="1197.35" electricity="0.00" noise="64.54" route="!yuanlinlu_east_T1.33" type="vt_car" waiting="0.00" lane="E2_3" pos="293.28" speed="11.78" angle="90.03" x="-90.83" y="-1.23"/>
        <vehicle id="yuanlinlu_east_T1.35" eclass="HBEFA3/PC_G_EU4" CO2="0.00" CO="0.00" HC="0.00" NOx="0.00" PMx="0.00" fuel="0.00" electricity="0.00" noise="50.23" route="!yuanlinlu_east_T1.35" type="vt_car" waiting="0.00" lane=":J3_17_0" pos="3.77" speed="5.54" angle="96.17" x="-15.76" y="-9.80"/>
        <vehicle id="yuanlinlu_east_T1.36" eclass="HBEFA3/HDV" CO2="0.00" CO="0.00" HC="0.00" NOx="0.00" PMx="0.00" fuel="0.00" electricity="0.00" noise="70.69" route="!yuanlinlu_east_T1.36" type="vt_truck" waiting="0.00" lane="E2_2" pos="236.75" speed="10.18" angle="90.03" x="-147.36" y="-5.20"/>
        <vehicle id="yuanlinlu_east_T1.40" eclass="HBEFA3/PC_G_EU4" CO2="0.00" CO="0.00" HC="0.00" NOx="0.00" PMx="0.00" fuel="0.00" electricity="0.00" noise="61.17" route="!yuanlinlu_east_T1.40" type="vt_car" waiting="0.00" lane="E2_3" pos="269.39" speed="11.72" angle="90.03" x="-114.72" y="-1.22"/>
        <vehicle id="yuanlinlu_east_T1.41" eclass="HBEFA3/PC_G_EU4" CO2="5273.78" CO="73.94" HC="0.46" NOx="2.16" PMx="0.09" fuel="1682.09" electricity="0.00" noise="66.08" route="!yuanlinlu_east_T1.41" type="vt_car" waiting="0.00" lane="E2_2" pos="215.09" speed="11.18" angle="90.03" x="-169.02" y="-5.19"/>
        <vehicle id="yuanlinlu_east_T1.42" eclass="HBEFA3/PC_G_EU4" CO2="2850.68" CO="30.06" HC="0.20" NOx="1.03" PMx="0.03" fuel="909.25" electricity="0.00" noise="62.92" route="!yuanlinlu_east_T1.42" type="vt_car" waiting="0.00" lane="E2_2" pos="195.08" speed="10.48" angle="90.03" x="-189.03" y="-5.19"/>
        <vehicle id="yuanlinlu_east_T1.44" eclass="HBEFA3/PC_G_EU4" CO2="2549.81" CO="156.61" HC="0.77" NOx="1.16" PMx="0.06" fuel="813.33" electricity="0.00" noise="54.88" route="!yuanlinlu_east_T1.44" type="vt_car" waiting="0.00" lane="E2_3" pos="355.92" speed="0.38" angle="90.03" x="-28.19" y="-1.26"/>
        <vehicle id="yuanlinlu_east_T1.48" eclass="HBEFA3/PC_G_EU4" CO2="0.00" CO="0.00" HC="0.00" NOx="0.00" PMx="0.00" fuel="0.00" electricity="0.00" noise="62.18" route="!yuanlinlu_east_T1.48" type="vt_car" waiting="0.00" lane="E2_3" pos="201.99" speed="12.86" angle="90.03" x="-182.12" y="-1.19"/>
        <vehicle id="yuanlinlu_east_T1.49" eclass="HBEFA3/PC_G_EU4" CO2="4219.33" CO="31.16" HC="0.24" NOx="1.58" PMx="0.06" fuel="1345.77" electricity="0.00" noise="66.04" route="!yuanlinlu_east_T1.49" type="vt_car" waiting="0.00" lane="E2_3" pos="179.95" speed="14.15" angle="90.03" x="-204.16" y="-1.18"/>
        <vehicle id="yuanlinlu_east_T1.5" eclass="HBEFA3/PC_G_EU4" CO2="6491.38" CO="115.54" HC="0.68" NOx="2.78" PMx="0.13" fuel="2070.44" electricity="0.00" noise="67.97" route="!yuanlinlu_east_T1.5" type="vt_car" waiting="0.00" lane="E9_2" pos="12.72" speed="9.36" angle="0.02" x="406.25" y="34.61"/>
        <vehicle id="yuanlinlu_east_T1.51" eclass="HBEFA3/PC_G_EU4" CO2="1976.99" CO="0.00" HC="0.00" NOx="0.52" PMx="0.00" fuel="630.58" electricity="0.00" noise="64.79" route="!yuanlinlu_east_T1.51" type="vt_car" waiting="0.00" lane="E2_2" pos="165.59" speed="14.56" angle="90.03" x="-218.52" y="-5.17"/>
        <vehicle id="yuanlinlu_east_T1.52" eclass="HBEFA3/PC_G_EU4" CO2="4954.11" CO="43.09" HC="0.31" NOx="1.92" PMx="0.08" fuel="1580.13" electricity="0.00" noise="66.84" route="!yuanlinlu_east_T1.52" type="vt_car" waiting="0.00" lane="E2_2" pos="139.45" speed="14.72" angle="90.03" x="-244.66" y="-5.16"/>
        <vehicle id="yuanlinlu_east_T1.53" eclass="HBEFA3/PC_G_EU4" CO2="3823.15" CO="19.92" HC="0.18" NOx="1.38" PMx="0.05" fuel="1219.41" electricity="0.00" noise="66.02" route="!yuanlinlu_east_T1.53" type="vt_car" waiting="0.00" lane="E2_3" pos="118.61" speed="14.70" angle="90.03" x="-265.50" y="-1.15"/>
        <vehicle id="yuanlinlu_east_T1.54" eclass="HBEFA3/PC_G_EU4" CO2="2623.54" CO="164.59" HC="0.81" NOx="1.20" PMx="0.07" fuel="836.85" electricity="0.00" noise="55.93" route="!yuanlinlu_east_T1.54" type="vt_car" waiting="3.00" lane="E0_2" pos="354.12" speed="0.01" angle="90.00" x="-425.73" y="-5.09"/>
        <vehicle id="yuanlinlu_east_T1.55" eclass="HBEFA3/PC_G_EU4" CO2="2622.60" CO="164.51" HC="0.81" NOx="1.20" PMx="0.07" fuel="836.55" electricity="0.00" noise="55.36" route="!yuanlinlu_east_T1.55" type="vt_car" waiting="1.00" lane="E0_2" pos="346.60" speed="0.01" angle="90.00" x="-433.25" y="-5.09"/>
        <vehicle id="yuanlinlu_east_T1.56" eclass="HBEFA3/HDV" CO2="0.00" CO="0.00" HC="0.00" NOx="0.00" PMx="0.00" fuel="0.00" electricity="0.00" noise="52.62" route="!yuanlinlu_east_T1.56" type="vt_truck" waiting="0.00" lane="E0_2" pos="322.34" speed="2.52" angle="90.00" x="-457.51" y="-5.09"/>
        <vehicle id="yuanlinlu_east_T1.59" eclass="HBEFA3/PC_G_EU4" CO2="0.00" CO="0.00" HC="0.00" NOx="0.00" PMx="0.00" fuel="0.00" electricity="0.00" noise="57.66" route="!yuanlinlu_east_T1.59" type="vt_car" waiting="0.00" lane="E0_2" pos="307.61" speed="8.29" angle="90.00" x="-472.24" y="-5.09"/>
        <vehicle id="yuanlinlu_east_T1.63" eclass="HBEFA3/PC_G_EU4" CO2="5161.31" CO="89.88" HC="0.53" NOx="2.16" PMx="0.09" fuel="1646.22" electricity="0.00" noise="65.78" route="!yuanlinlu_east_T1.63" type="vt_car" waiting="0.00" lane="E0_2" pos="291.21" speed="9.19" angle="90.00" x="-488.64" y="-5.09"/>
        <vehicle id="yuanlinlu_east_T1.67" eclass="HBEFA3/PC_G_EU4" CO2="0.00" CO="0.00" HC="0.00" NOx="0.00" PMx="0.00" fuel="0.00" electricity="0.00" noise="50.18" route="!yuanlinlu_east_T1.67" type="vt_car" waiting="0.00" lane="E0_2" pos="330.98" speed="0.64" angle="90.00" x="-448.87" y="-5.09"/>
        <vehicle id="yuanlinlu_east_T1.70" eclass="HBEFA3/PC_G_EU4" CO2="3620.72" CO="76.93" HC="0.43" NOx="1.47" PMx="0.06" fuel="1154.86" electricity="0.00" noise="62.88" route="!yuanlinlu_east_T1.70" type="vt_car" waiting="0.00" lane="E0_2" pos="273.01" speed="7.44" angle="90.00" x="-506.84" y="-5.09"/>
        <vehicle id="yuanlinlu_east_T1.71" eclass="HBEFA3/PC_G_EU4" CO2="5558.36" CO="56.24" HC="0.39" NOx="2.21" PMx="0.09" fuel="1772.85" electricity="0.00" noise="67.27" route="!yuanlinlu_east_T1.71" type="vt_car" waiting="0.00" lane="E2_3" pos="91.94" speed="14.59" angle="90.03" x="-292.17" y="-1.14"/>
        <vehicle id="yuanlinlu_east_T1.73" eclass="HBEFA3/PC_G_EU4" CO2="4152.19" CO="102.69" HC="0.56" NOx="1.76" PMx="0.08" fuel="1324.38" electricity="0.00" noise="64.14" route="!yuanlinlu_east_T1.73" type="vt_car" waiting="0.00" lane="E0_2" pos="256.35" speed="6.20" angle="90.00" x="-523.50" y="-5.09"/>
        <vehicle id="yuanlinlu_east_T1.75" eclass="HBEFA3/PC_G_EU4" CO2="0.00" CO="0.00" HC="0.00" NOx="0.00" PMx="0.00" fuel="0.00" electricity="0.00" noise="55.36" route="!yuanlinlu_east_T1.75" type="vt_car" waiting="0.00" lane="E0_2" pos="241.13" speed="4.61" angle="90.00" x="-538.72" y="-5.09"/>
        <vehicle id="yuanlinlu_east_T1.77" eclass="HBEFA3/PC_G_EU4" CO2="2624.72" CO="164.78" HC="0.81" NOx="1.20" PMx="0.07" fuel="837.22" electricity="0.00" noise="55.94" route="!yuanlinlu_east_T1.77" type="vt_car" waiting="6.00" lane="E0_2" pos="361.63" speed="0.00" angle="90.00" x="-418.22" y="-5.09"/>
        <vehicle id="yuanlinlu_east_T1.79" eclass="HBEFA3/PC_G_EU4" CO2="3992.48" CO="106.41" HC="0.58" NOx="1.70" PMx="0.08" fuel="1273.44" electricity="0.00" noise="63.87" route="!yuanlinlu_east_T1.79" type="vt_car" waiting="0.00" lane="E0_2" pos="227.75" speed="5.65" angle="90.00" x="-552.10" y="-5.09"/>
        <vehicle id="yuanlinlu_east_T1.80" eclass="HBEFA3/PC_G_EU4" CO2="0.00" CO="0.00" HC="0.00" NOx="0.00" PMx="0.00" fuel="0.00" electricity="0.00" noise="54.27" route="!yuanlinlu_east_T1.80" type="vt_car" waiting="0.00" lane="E0_2" pos="213.75" speed="4.32" angle="90.00" x="-566.10" y="-5.09"/>
        <vehicle id="yuanlinlu_east_T1.81" eclass="HBEFA3/PC_G_EU4" CO2="2598.40" CO="161.61" HC="0.80" NOx="1.19" PMx="0.06" fuel="828.83" electricity="0.00" noise="55.18" route="!yuanlinlu_east_T1.81" type="vt_car" waiting="0.00" lane="E0_2" pos="339.06" speed="0.15" angle="90.00" x="-440.79" y="-5.09"/>
        <vehicle id="yuanlinlu_east_T1.84" eclass="HBEFA3/PC_G_EU4" CO2="0.00" CO="0.00" HC="0.00" NOx="0.00" PMx="0.00" fuel="0.00" electricity="0.00" noise="50.48" route="!yuanlinlu_east_T1.84" type="vt_car" waiting="0.00" lane="E0_2" pos="200.15" speed="4.77" angle="90.00" x="-579.70" y="-5.09"/>
        <vehicle id="yuanlinlu_east_T1.85" eclass="HBEFA3/PC_G_EU4" CO2="0.00" CO="0.00" HC="0.00" NOx="0.00" PMx="0.00" fuel="0.00" electricity="0.00" noise="62.32" route="!yuanlinlu_east_T1.85" type="vt_car" waiting="0.00" lane="E1_1" pos="139.77" speed="12.16" angle="179.99" x="-407.10" y="-159.87"/>
        <vehicle id="yuanlinlu_east_T1.86" eclass="HBEFA3/HDV" CO2="23903.99" CO="32.77" HC="0.00" NOx="202.08" PMx="3.94" fuel="7519.49" electricity="0.00" noise="75.76" route="!yuanlinlu_east_T1.86" type="vt_truck" waiting="0.00" lane="E1_1" pos="25.26" speed="10.22" angle="179.99" x="-407.12" y="-45.36"/>
        <vehicle id="yuanlinlu_east_T1.87" eclass="HBEFA3/PC_G_EU4" CO2="4407.16" CO="90.45" HC="0.51" NOx="1.84" PMx="0.08" fuel="1405.69" electricity="0.00" noise="64.48" route="!yuanlinlu_east_T1.87" type="vt_car" waiting="0.00" lane="E0_2" pos="186.53" speed="7.67" angle="90.00" x="-593.32" y="-5.09"/>
        <vehicle id="yuanlinlu_east_T1.88" eclass="HBEFA3/HDV" CO2="13963.62" CO="22.05" HC="0.00" NOx="129.40" PMx="2.85" fuel="4392.49" electricity="0.00" noise="71.87" route="!yuanlinlu_east_T1.88" type="vt_truck" waiting="0.00" lane="E0_2" pos="169.66" speed="5.95" angle="90.00" x="-610.19" y="-5.09"/>
        <vehicle id="yuanlinlu_east_T1.89" eclass="HBEFA3/PC_G_EU4" CO2="0.00" CO="0.00" HC="0.00" NOx="0.00" PMx="0.00" fuel="0.00" electricity="0.00" noise="54.31" route="!yuanlinlu_east_T1.89" type="vt_car" waiting="0.00" lane=":J1_30_0" pos="10.60" speed="5.90" angle="164.03" x="-407.35" y="-18.52"/>
        <vehicle id="yuanlinlu_east_T1.9" eclass="HBEFA3/PC_G_EU4" CO2="2563.09" CO="155.36" HC="0.77" NOx="1.16" PMx="0.06" fuel="817.56" electricity="0.00" noise="56.01" route="!yuanlinlu_east_T1.9" type="vt_car" waiting="0.00" lane=":J6_19_0" pos="9.45" speed="0.47" angle="74.98" x="396.37" y="0.91"/>
        <vehicle id="yuanlinlu_east_T1.90" eclass="HBEFA3/HDV" CO2="0.00" CO="0.00" HC="0.00" NOx="0.00" PMx="0.00" fuel="0.00" electricity="0.00" noise="69.86" route="!yuanlinlu_east_T1.90" type="vt_truck" waiting="0.00" lane="E0_1" pos="296.66" speed="9.77" angle="90.00" x="-483.19" y="-9.09"/>
        <vehicle id="yuanlinlu_east_T1.91" eclass="HBEFA3/HDV" CO2="16841.30" CO="25.29" HC="0.00" NOx="152.37" PMx="3.21" fuel="5297.77" electricity="0.00" noise="73.23" route="!yuanlinlu_east_T1.91" type="vt_truck" waiting="0.00" lane="E0_2" pos="152.55" speed="5.52" angle="90.00" x="-627.30" y="-5.09"/>
        <vehicle id="yuanlinlu_east_T1.92" eclass="HBEFA3/PC_G_EU4" CO2="2887.50" CO="89.07" HC="0.47" NOx="1.19" PMx="0.05" fuel="921.01" electricity="0.00" noise="60.64" route="!yuanlinlu_east_T1.92" type="vt_car" waiting="0.00" lane="E0_2" pos="136.59" speed="5.24" angle="90.00" x="-643.26" y="-5.09"/>
        <vehicle id="yuanlinlu_east_T1.93" eclass="HBEFA3/PC_G_EU4" CO2="0.00" CO="0.00" HC="0.00" NOx="0.00" PMx="0.00" fuel="0.00" electricity="0.00" noise="62.74" route="!yuanlinlu_east_T1.93" type="vt_car" waiting="0.00" lane="E0_1" pos="261.24" speed="13.66" angle="90.00" x="-518.61" y="-9.09"/>