<?xml version="1.0" encoding="UTF-8"?>

<!-- generated on 2024-03-03 15:25:01 by Eclipse SUMO sumo Version 1.19.0
<configuration xmlns:xsi="http://www.w3.org/2001/XMLSchema-instance" xsi:noNamespaceSchemaLocation="http://sumo.dlr.de/xsd/sumoConfiguration.xsd">

    <input>
        <net-file value="sumo_network/example42.net.xml"/>
        <route-files value="sumo_network/example42.rou.xml,sumo_network/bus.rou.xml,sumo_network/pedestrian.rou.xml"/>
        <additional-files value="sumo_network/busstops_def.add.xml,sumo_network/det_e3.add.xml,sumo_network/det_e2.add.xml,sumo_network/edgelane_dump.add.xml,sumo_network/signal-timing-dial.xml"/>
    </input>

    <output>
        <write-license value="false"/>
        <output-prefix value="OUTPUT-"/>
        <precision value="2"/>
        <human-readable-time value="false"/>
        <emission-output value="sumo_network/output/data_emission.xml"/>
        <emission-output.precision value="2"/>
        <queue-output value="sumo_network/output/data_Queue.xml"/>
        <queue-output.period value="300"/>
        <summary-output value="sumo_network/output/data_summary.xml"/>
        <summary-output.period value="300"/>
        <person-summary-output value="sumo_network/output/data_person_summary.xml"/>
        <personinfo-output value="sumo_network/output/data_personinfo.xml"/>
        <collision-output value="sumo_network/output/data_collision.xml"/>
        <edgedata-output value="sumo_network/output/data_edges.xml"/>
        <lanedata-output value="sumo_network/output/data_lanes.xml"/>
        <statistic-output value="sumo_network/output/data_statistic.xml"/>
    </output>

    <time>
        <begin value="0"/>
        <end value="3600"/>
        <step-length value="1"/>
    </time>

    <processing>
        <no-internal-links value="false"/>
        <ignore-route-errors value="true"/>
        <collision.action value="teleport"/>
        <intermodal-collision.action value="warn"/>
        <collision.stoptime value="0"/>
        <intermodal-collision.stoptime value="0"/>
        <collision.check-junctions value="false"/>
        <max-num-vehicles value="-1"/>
        <max-num-teleports value="-1"/>
        <time-to-teleport value="300"/>
        <time-to-teleport.remove value="false"/>
        <waiting-time-memory value="100"/>
        <max-depart-delay value="-1"/>
        <random-depart-offset value="0"/>
        <lanechange.duration value="0"/>
        <lanechange.overtake-right value="false"/>
        <tls.all-off value="false"/>
        <tls.yellow.min-decel value="3"/>
    </processing>

    <routing>
        <routing-algorithm value="dijkstra"/>
    </routing>

    <report>
        <verbose value="true"/>
        <no-warnings value="true"/>
        <log value="sumo_network/output/data_log.xml"/>
        <no-step-log value="true"/>
        <step-log.period value="300"/>
    </report>

    <emissions>
        <device.emissions.period value="300"/>
    </emissions>

    <traci_server>
        <remote-port value="8813"/>
    </traci_server>

    <mesoscopic>
        <mesosim value="false"/>
    </mesoscopic>

    <random_number>
        <random value="false"/>
        <seed value="23423"/>
    </random_number>

    <gui_only>
        <gui-settings-file value="sumo_network/viewsettings.xml"/>
        <start value="true"/>
        <demo value="false"/>
        <window-size value="800,600"/>
        <window-pos value="100,100"/>
    </gui_only>

</configuration>
-->

<emission-export xmlns:xsi="http://www.w3.org/2001/XMLSchema-instance" xsi:noNamespaceSchemaLocation="http://sumo.dlr.de/xsd/emission_file.xsd">
    <timestep time="0.00">
        <vehicle id="down2up_211.0" eclass="HBEFA3/Bus" CO2="5286.11" CO="20.17" HC="4.85" NOx="60.75" PMx="2.01" fuel="1671.11" electricity="0.00" noise="67.11" route="rt_DOWN2UP" type="BUS_A" waiting="0.00" lane="-E7_1" pos="12.10" speed="0.00" angle="360.00" x="410.25" y="-191.54"/>
        <vehicle id="feitianlu_north_T1.0" eclass="HBEFA3/PC_G_EU4" CO2="2624.72" CO="164.78" HC="0.81" NOx="1.20" PMx="0.07" fuel="837.22" electricity="0.00" noise="55.94" route="!feitianlu_north_T1.0" type="vt_car" waiting="0.00" lane="-E9_2" pos="5.10" speed="0.00" angle="180.02" x="402.32" y="202.61"/>
        <vehicle id="feitianlu_south_T1.0" eclass="HBEFA3/PC_G_EU4" CO2="2624.72" CO="164.78" HC="0.81" NOx="1.20" PMx="0.07" fuel="837.22" electricity="0.00" noise="55.94" route="!feitianlu_south_T1.0" type="vt_car" waiting="0.00" lane="-E7_2" pos="5.10" speed="0.00" angle="360.00" x="406.25" y="-198.54"/>
        <vehicle id="fukanglu_north_T1.0" eclass="HBEFA3/PC_G_EU4" CO2="2624.72" CO="164.78" HC="0.81" NOx="1.20" PMx="0.07" fuel="837.22" electricity="0.00" noise="55.94" route="!fukanglu_north_T1.0" type="vt_car" waiting="0.00" lane="-E6_1" pos="5.10" speed="0.00" angle="180.04" x="-8.35" y="199.74"/>
        <vehicle id="fukanglu_south_T1.0" eclass="HBEFA3/PC_G_EU4" CO2="2624.72" CO="164.78" HC="0.81" NOx="1.20" PMx="0.07" fuel="837.22" electricity="0.00" noise="55.94" route="!fukanglu_south_T1.0" type="vt_car" waiting="0.00" lane="-E4_2" pos="5.10" speed="0.00" angle="359.98" x="7.57" y="-195.43"/>
        <vehicle id="up2down_211.0" eclass="HBEFA3/Bus" CO2="5286.11" CO="20.17" HC="4.85" NOx="60.75" PMx="2.01" fuel="1671.11" electricity="0.00" noise="67.11" route="rt_UP2DOWN" type="BUS_B" waiting="0.00" lane="-E3_1" pos="12.10" speed="0.00" angle="180.02" x="-407.06" y="190.50"/>
        <vehicle id="w2e_106.0" eclass="HBEFA3/Bus" CO2="5286.11" CO="20.17" HC="4.85" NOx="60.75" PMx="2.01" fuel="1671.11" electricity="0.00" noise="67.11" route="rt_W2E" type="BUS_A" waiting="0.00" lane="E0_1" pos="12.10" speed="0.00" angle="90.00" x="-767.75" y="-9.09"/>
        <vehicle id="xingminlu_north_T1.0" eclass="HBEFA3/PC_G_EU4" CO2="2624.72" CO="164.78" HC="0.81" NOx="1.20" PMx="0.07" fuel="837.22" electricity="0.00" noise="55.94" route="!xingminlu_north_T1.0" type="vt_car" waiting="0.00" lane="-E3_2" pos="5.10" speed="0.00" angle="180.02" x="-403.06" y="197.50"/>
        <vehicle id="xingminlu_south_T1.0" eclass="HBEFA3/PC_G_EU4" CO2="2624.72" CO="164.78" HC="0.81" NOx="1.20" PMx="0.07" fuel="837.22" electricity="0.00" noise="55.94" route="!xingminlu_south_T1.0" type="vt_car" waiting="0.00" lane="-E1_1" pos="5.10" speed="0.00" angle="359.99" x="-395.09" y="-198.05"/>
        <vehicle id="yuanlinlu_east_T1.0" eclass="HBEFA3/PC_G_EU4" CO2="2624.72" CO="164.78" HC="0.81" NOx="1.20" PMx="0.07" fuel="837.22" electricity="0.00" noise="55.94" route="!yuanlinlu_east_T1.0" type="vt_car" waiting="0.00" lane="E0_2" pos="5.10" speed="0.00" angle="90.00" x="-774.75" y="-5.09"/>
        <vehicle id="yuanlinlu_west_T1.0" eclass="HBEFA3/PC_G_EU4" CO2="2624.72" CO="164.78" HC="0.81" NOx="1.20" PMx="0.07" fuel="837.22" electricity="0.00" noise="55.94" route="!yuanlinlu_west_T1.0" type="vt_car" waiting="0.00" lane="-E8_1" pos="5.10" speed="0.00" angle="270.03" x="741.78" y="10.69"/>
    </timestep>
</emission-export>
