<?xml version="1.0" encoding="UTF-8"?>

<!-- generated on 2024-04-12 11:10:06 by Eclipse SUMO sumo Version 1.19.0
<configuration xmlns:xsi="http://www.w3.org/2001/XMLSchema-instance" xsi:noNamespaceSchemaLocation="http://sumo.dlr.de/xsd/sumoConfiguration.xsd">

    <input>
        <net-file value="sumo_network/example42.net.xml"/>
        <route-files value="sumo_network/example42.rou.xml,sumo_network/bus.rou.xml,sumo_network/pedestrian.rou.xml"/>
        <additional-files value="sumo_network/busstops_def.add.xml,sumo_network/det_e3.add.xml,sumo_network/det_e2.add.xml,sumo_network/edgelane_dump.add.xml,sumo_network/signal-timing-dial.xml"/>
    </input>

    <output>
        <write-license value="false"/>
        <output-prefix value="OUTPUT-"/>
        <precision value="2"/>
        <human-readable-time value="false"/>
        <emission-output value="sumo_network/output/data_emission.xml"/>
        <emission-output.precision value="2"/>
        <queue-output value="sumo_network/output/data_Queue.xml"/>
        <queue-output.period value="300"/>
        <summary-output value="sumo_network/output/data_summary.xml"/>
        <summary-output.period value="300"/>
        <person-summary-output value="sumo_network/output/data_person_summary.xml"/>
        <personinfo-output value="sumo_network/output/data_personinfo.xml"/>
        <collision-output value="sumo_network/output/data_collision.xml"/>
        <edgedata-output value="sumo_network/output/data_edges.xml"/>
        <lanedata-output value="sumo_network/output/data_lanes.xml"/>
        <statistic-output value="sumo_network/output/data_statistic.xml"/>
    </output>

    <time>
        <begin value="0"/>
        <end value="3600"/>
        <step-length value="1"/>
    </time>

    <processing>
        <no-internal-links value="false"/>
        <ignore-route-errors value="true"/>
        <collision.action value="teleport"/>
        <intermodal-collision.action value="warn"/>
        <collision.stoptime value="0"/>
        <intermodal-collision.stoptime value="0"/>
        <collision.check-junctions value="false"/>
        <max-num-vehicles value="-1"/>
        <max-num-teleports value="-1"/>
        <time-to-teleport value="300"/>
        <time-to-teleport.remove value="false"/>
        <waiting-time-memory value="100"/>
        <max-depart-delay value="-1"/>
        <random-depart-offset value="0"/>
        <lanechange.duration value="0"/>
        <lanechange.overtake-right value="false"/>
        <tls.all-off value="false"/>
        <tls.yellow.min-decel value="3"/>
    </processing>

    <routing>
        <routing-algorithm value="dijkstra"/>
    </routing>

    <report>
        <verbose value="true"/>
        <no-warnings value="true"/>
        <log value="sumo_network/output/data_log.xml"/>
        <no-step-log value="true"/>
        <step-log.period value="300"/>
    </report>

    <emissions>
        <device.emissions.period value="300"/>
    </emissions>

    <traci_server>
        <remote-port value="8813"/>
    </traci_server>

    <mesoscopic>
        <mesosim value="false"/>
    </mesoscopic>

    <random_number>
        <random value="false"/>
        <seed value="23423"/>
    </random_number>

    <gui_only>
        <gui-settings-file value="sumo_network/viewsettings.xml"/>
        <start value="true"/>
        <demo value="false"/>
        <window-size value="800,600"/>
        <window-pos value="100,100"/>
    </gui_only>

</configuration>
-->

<emission-export xmlns:xsi="http://www.w3.org/2001/XMLSchema-instance" xsi:noNamespaceSchemaLocation="http://sumo.dlr.de/xsd/emission_file.xsd">
    <timestep time="0.00">
        <vehicle id="down2up_211.0" eclass="HBEFA3/Bus" CO2="5286.11" CO="20.17" HC="4.85" NOx="60.75" PMx="2.01" fuel="1671.11" electricity="0.00" noise="67.11" route="rt_DOWN2UP" type="BUS_A" waiting="0.00" lane="-E7_1" pos="12.10" speed="0.00" angle="360.00" x="410.25" y="-191.40"/>
        <vehicle id="feitianlu_north_T1.0" eclass="HBEFA3/PC_G_EU4" CO2="2624.72" CO="164.78" HC="0.81" NOx="1.20" PMx="0.07" fuel="837.22" electricity="0.00" noise="55.94" route="!feitianlu_north_T1.0" type="vt_car" waiting="0.00" lane="-E9_2" pos="5.10" speed="0.00" angle="180.02" x="402.32" y="202.61"/>
        <vehicle id="feitianlu_south_T1.0" eclass="HBEFA3/PC_G_EU4" CO2="2624.72" CO="164.78" HC="0.81" NOx="1.20" PMx="0.07" fuel="837.22" electricity="0.00" noise="55.94" route="!feitianlu_south_T1.0" type="vt_car" waiting="0.00" lane="-E15_1" pos="5.10" speed="0.00" angle="0.00" x="406.00" y="-594.90"/>
        <vehicle id="fukanglu_north_T1.0" eclass="HBEFA3/PC_G_EU4" CO2="2624.72" CO="164.78" HC="0.81" NOx="1.20" PMx="0.07" fuel="837.22" electricity="0.00" noise="55.94" route="!fukanglu_north_T1.0" type="vt_car" waiting="0.00" lane="-E6_3" pos="5.10" speed="0.00" angle="180.04" x="-0.35" y="199.73"/>
        <vehicle id="fukanglu_south_T1.0" eclass="HBEFA3/PC_G_EU4" CO2="2624.72" CO="164.78" HC="0.81" NOx="1.20" PMx="0.07" fuel="837.22" electricity="0.00" noise="55.94" route="!fukanglu_south_T1.0" type="vt_car" waiting="0.00" lane="-E13_2" pos="5.10" speed="0.00" angle="0.00" x="6.00" y="-594.90"/>
        <vehicle id="up2down_211.0" eclass="HBEFA3/Bus" CO2="5286.11" CO="20.17" HC="4.85" NOx="60.75" PMx="2.01" fuel="1671.11" electricity="0.00" noise="67.11" route="rt_UP2DOWN" type="BUS_B" waiting="0.00" lane="-E3_1" pos="12.10" speed="0.00" angle="180.02" x="-407.06" y="190.50"/>
        <vehicle id="w2e_106.0" eclass="HBEFA3/Bus" CO2="5286.11" CO="20.17" HC="4.85" NOx="60.75" PMx="2.01" fuel="1671.11" electricity="0.00" noise="67.11" route="rt_W2E" type="BUS_A" waiting="0.00" lane="E0_1" pos="12.10" speed="0.00" angle="90.00" x="-767.75" y="-9.09"/>
        <vehicle id="xingminlu_north_T1.0" eclass="HBEFA3/PC_G_EU4" CO2="2624.72" CO="164.78" HC="0.81" NOx="1.20" PMx="0.07" fuel="837.22" electricity="0.00" noise="55.94" route="!xingminlu_north_T1.0" type="vt_car" waiting="0.00" lane="-E3_2" pos="5.10" speed="0.00" angle="180.02" x="-403.06" y="197.50"/>
        <vehicle id="xingminlu_south_T1.0" eclass="HBEFA3/PC_G_EU4" CO2="2624.72" CO="164.78" HC="0.81" NOx="1.20" PMx="0.07" fuel="837.22" electricity="0.00" noise="55.94" route="!xingminlu_south_T1.0" type="vt_car" waiting="0.00" lane="-E11_2" pos="5.10" speed="0.00" angle="0.00" x="-398.00" y="-594.90"/>
        <vehicle id="yuanlinlu_east.0" eclass="HBEFA3/PC_G_EU4" CO2="2624.72" CO="164.78" HC="0.81" NOx="1.20" PMx="0.07" fuel="837.22" electricity="0.00" noise="55.94" route="!yuanlinlu_east.0" type="vt_car" waiting="0.00" lane="E16_3" pos="5.10" speed="0.00" angle="90.00" x="-794.90" y="-402.00"/>
        <vehicle id="yuanlinlu_east_T1.0" eclass="HBEFA3/PC_G_EU4" CO2="2624.72" CO="164.78" HC="0.81" NOx="1.20" PMx="0.07" fuel="837.22" electricity="0.00" noise="55.94" route="!yuanlinlu_east_T1.0" type="vt_car" waiting="0.00" lane="E0_2" pos="5.10" speed="0.00" angle="90.00" x="-774.75" y="-5.09"/>
        <vehicle id="yuanlinlu_west.0" eclass="HBEFA3/PC_G_EU4" CO2="2624.72" CO="164.78" HC="0.81" NOx="1.20" PMx="0.07" fuel="837.22" electricity="0.00" noise="55.94" route="!yuanlinlu_west.0" type="vt_car" waiting="0.00" lane="-E19_2" pos="5.10" speed="0.00" angle="270.00" x="794.90" y="-394.00"/>
        <vehicle id="yuanlinlu_west_T1.0" eclass="HBEFA3/PC_G_EU4" CO2="2624.72" CO="164.78" HC="0.81" NOx="1.20" PMx="0.07" fuel="837.22" electricity="0.00" noise="55.94" route="!yuanlinlu_west_T1.0" type="vt_car" waiting="0.00" lane="-E8_1" pos="5.10" speed="0.00" angle="270.03" x="741.78" y="10.69"/>
    </timestep>
    <timestep time="300.00">
        <vehicle id="down2up_211.0" eclass="HBEFA3/Bus" CO2="0.00" CO="0.00" HC="0.00" NOx="0.00" PMx="0.00" fuel="0.00" electricity="0.00" noise="69.89" route="rt_DOWN2UP" type="BUS_A" waiting="0.00" lane="-E2_1" pos="78.46" speed="8.26" angle="270.03" x="-97.95" y="10.77"/>
        <vehicle id="e2w_106.0" eclass="HBEFA3/Bus" CO2="5286.11" CO="20.17" HC="4.85" NOx="60.75" PMx="2.01" fuel="1671.11" electricity="0.00" noise="67.11" route="rt_E2W" type="BUS_B" waiting="0.00" lane="-E5_1" pos="167.50" speed="0.00" angle="269.98" x="219.73" y="10.82"/>
        <vehicle id="feitianlu_north_T1.10" eclass="HBEFA3/PC_G_EU4" CO2="0.00" CO="0.00" HC="0.00" NOx="0.00" PMx="0.00" fuel="0.00" electricity="0.00" noise="63.65" route="!feitianlu_north_T1.10" type="vt_car" waiting="0.00" lane="-E2_3" pos="82.47" speed="14.01" angle="270.03" x="-101.96" y="2.78"/>
        <vehicle id="feitianlu_north_T1.11" eclass="HBEFA3/PC_G_EU4" CO2="0.00" CO="0.00" HC="0.00" NOx="0.00" PMx="0.00" fuel="0.00" electricity="0.00" noise="62.31" route="!feitianlu_north_T1.11" type="vt_car" waiting="0.00" lane="-E2_3" pos="53.29" speed="12.32" angle="270.03" x="-72.78" y="2.76"/>
        <vehicle id="feitianlu_north_T1.12" eclass="HBEFA3/PC_G_EU4" CO2="3142.99" CO="12.27" HC="0.13" NOx="1.09" PMx="0.03" fuel="1002.48" electricity="0.00" noise="64.95" route="!feitianlu_north_T1.12" type="vt_car" waiting="0.00" lane="E14_1" pos="23.85" speed="13.61" angle="181.24" x="397.73" y="-227.50"/>
        <vehicle id="feitianlu_north_T1.13" eclass="HBEFA3/PC_G_EU4" CO2="2422.60" CO="0.00" HC="0.05" NOx="0.76" PMx="0.01" fuel="772.71" electricity="0.00" noise="64.20" route="!feitianlu_north_T1.13" type="vt_car" waiting="0.00" lane="-E5_2" pos="221.14" speed="13.22" angle="269.98" x="166.10" y="6.80"/>
        <vehicle id="feitianlu_north_T1.14" eclass="HBEFA3/PC_G_EU4" CO2="1514.94" CO="0.00" HC="0.00" NOx="0.34" PMx="0.00" fuel="483.22" electricity="0.00" noise="63.31" route="!feitianlu_north_T1.14" type="vt_car" waiting="0.00" lane=":J6_3_0" pos="32.22" speed="12.84" angle="180.01" x="402.24" y="-10.33"/>
        <vehicle id="feitianlu_north_T1.15" eclass="HBEFA3/PC_G_EU4" CO2="2624.72" CO="164.78" HC="0.81" NOx="1.20" PMx="0.07" fuel="837.22" electricity="0.00" noise="55.94" route="!feitianlu_north_T1.15" type="vt_car" waiting="0.00" lane="-E9_2" pos="5.10" speed="0.00" angle="180.02" x="402.32" y="202.61"/>
        <vehicle id="feitianlu_north_T1.6" eclass="HBEFA3/PC_G_EU4" CO2="0.00" CO="0.00" HC="0.00" NOx="0.00" PMx="0.00" fuel="0.00" electricity="0.00" noise="55.54" route="!feitianlu_north_T1.6" type="vt_car" waiting="0.00" lane="-E2_3" pos="357.14" speed="8.69" angle="270.03" x="-376.63" y="2.90"/>
        <vehicle id="feitianlu_north_T1.9" eclass="HBEFA3/PC_G_EU4" CO2="3276.84" CO="147.44" HC="0.75" NOx="1.46" PMx="0.07" fuel="1045.20" electricity="0.00" noise="64.64" route="!feitianlu_north_T1.9" type="vt_car" waiting="0.00" lane=":J13_9_0" pos="0.82" speed="1.82" angle="268.68" x="20.32" y="-398.12"/>
        <vehicle id="feitianlu_south_T1.11" eclass="HBEFA3/PC_G_EU4" CO2="2624.72" CO="164.78" HC="0.81" NOx="1.20" PMx="0.07" fuel="837.22" electricity="0.00" noise="55.94" route="!feitianlu_south_T1.11" type="vt_car" waiting="32.00" lane="-E15_2" pos="178.00" speed="0.00" angle="0.00" x="402.00" y="-422.00"/>
        <vehicle id="feitianlu_south_T1.12" eclass="HBEFA3/PC_G_EU4" CO2="3688.03" CO="19.37" HC="0.17" NOx="1.33" PMx="0.05" fuel="1176.31" electricity="0.00" noise="65.72" route="!feitianlu_south_T1.12" type="vt_car" waiting="0.00" lane="E19_1" pos="137.09" speed="14.30" angle="90.00" x="554.46" y="-410.00"/>
        <vehicle id="feitianlu_south_T1.13" eclass="HBEFA3/HDV" CO2="22834.40" CO="31.55" HC="0.00" NOx="193.24" PMx="3.80" fuel="7183.01" electricity="0.00" noise="75.63" route="!feitianlu_south_T1.13" type="vt_truck" waiting="0.00" lane="-E15_2" pos="56.53" speed="10.63" angle="0.00" x="402.00" y="-543.47"/>
        <vehicle id="feitianlu_south_T1.2" eclass="HBEFA3/PC_G_EU4" CO2="0.00" CO="0.00" HC="0.00" NOx="0.00" PMx="0.00" fuel="0.00" electricity="0.00" noise="62.96" route="!feitianlu_south_T1.2" type="vt_car" waiting="0.00" lane="E19_2" pos="117.01" speed="13.40" angle="90.00" x="534.38" y="-406.00"/>
        <vehicle id="feitianlu_south_T1.6" eclass="HBEFA3/PC_G_EU4" CO2="3118.12" CO="27.07" HC="0.19" NOx="1.13" PMx="0.04" fuel="994.55" electricity="0.00" noise="63.75" route="!feitianlu_south_T1.6" type="vt_car" waiting="0.00" lane="-E17_1" pos="71.80" speed="11.48" angle="270.00" x="-92.80" y="-390.00"/>
        <vehicle id="feitianlu_south_T1.9" eclass="HBEFA3/PC_G_EU4" CO2="3296.04" CO="147.47" HC="0.75" NOx="1.47" PMx="0.07" fuel="1051.33" electricity="0.00" noise="64.75" route="!feitianlu_south_T1.9" type="vt_car" waiting="0.00" lane=":J13_7_0" pos="0.84" speed="1.84" angle="271.36" x="20.30" y="-389.88"/>
        <vehicle id="fukanglu_north_T1.1" eclass="HBEFA3/PC_G_EU4" CO2="0.00" CO="0.00" HC="0.00" NOx="0.00" PMx="0.00" fuel="0.00" electricity="0.00" noise="62.44" route="!fukanglu_north_T1.1" type="vt_car" waiting="0.00" lane="E19_2" pos="144.41" speed="12.44" angle="90.00" x="561.78" y="-406.00"/>
        <vehicle id="fukanglu_north_T1.14" eclass="HBEFA3/PC_G_EU4" CO2="0.00" CO="0.00" HC="0.00" NOx="0.00" PMx="0.00" fuel="0.00" electricity="0.00" noise="60.90" route="!fukanglu_north_T1.14" type="vt_car" waiting="0.00" lane="-E0_2" pos="117.64" speed="11.53" angle="270.00" x="-535.76" y="6.91"/>
        <vehicle id="fukanglu_north_T1.15" eclass="HBEFA3/PC_G_EU4" CO2="3270.85" CO="7.83" HC="0.11" NOx="1.12" PMx="0.04" fuel="1043.25" electricity="0.00" noise="65.73" route="!fukanglu_north_T1.15" type="vt_car" waiting="0.00" lane="E7_2" pos="171.15" speed="14.83" angle="180.00" x="402.25" y="-191.27"/>
        <vehicle id="fukanglu_north_T1.16" eclass="HBEFA3/PC_G_EU4" CO2="2624.72" CO="164.78" HC="0.81" NOx="1.20" PMx="0.07" fuel="837.22" electricity="0.00" noise="55.94" route="!fukanglu_north_T1.16" type="vt_car" waiting="10.00" lane="E5_2" pos="363.71" speed="0.00" angle="89.98" x="386.24" y="-5.12"/>
        <vehicle id="fukanglu_north_T1.17" eclass="HBEFA3/PC_G_EU4" CO2="2624.72" CO="164.78" HC="0.81" NOx="1.20" PMx="0.07" fuel="837.22" electricity="0.00" noise="55.94" route="!fukanglu_north_T1.17" type="vt_car" waiting="25.00" lane="-E6_2" pos="182.08" speed="0.00" angle="180.04" x="-4.48" y="22.75"/>
        <vehicle id="fukanglu_north_T1.18" eclass="HBEFA3/PC_G_EU4" CO2="3691.81" CO="37.55" HC="0.26" NOx="1.40" PMx="0.05" fuel="1177.52" electricity="0.00" noise="64.42" route="!fukanglu_north_T1.18" type="vt_car" waiting="0.00" lane="-E2_2" pos="91.18" speed="11.65" angle="270.03" x="-110.66" y="6.78"/>
        <vehicle id="fukanglu_north_T1.19" eclass="HBEFA3/PC_G_EU4" CO2="0.00" CO="0.00" HC="0.00" NOx="0.00" PMx="0.00" fuel="0.00" electricity="0.00" noise="61.28" route="!fukanglu_north_T1.19" type="vt_car" waiting="0.00" lane="-E6_2" pos="161.86" speed="12.20" angle="180.04" x="-4.46" y="42.97"/>
        <vehicle id="fukanglu_north_T1.20" eclass="HBEFA3/PC_G_EU4" CO2="2624.72" CO="164.78" HC="0.81" NOx="1.20" PMx="0.07" fuel="837.22" electricity="0.00" noise="55.94" route="!fukanglu_north_T1.20" type="vt_car" waiting="0.00" lane="-E6_1" pos="5.10" speed="0.00" angle="180.04" x="-8.35" y="199.74"/>
        <vehicle id="fukanglu_north_T1.3" eclass="HBEFA3/HDV" CO2="7380.67" CO="15.20" HC="0.00" NOx="84.89" PMx="2.21" fuel="2321.70" electricity="0.00" noise="67.11" route="!fukanglu_north_T1.3" type="vt_truck" waiting="5.00" lane="E10_2" pos="144.62" speed="0.00" angle="179.68" x="-402.29" y="-347.93"/>
        <vehicle id="fukanglu_north_T1.4" eclass="HBEFA3/PC_G_EU4" CO2="3110.95" CO="7.12" HC="0.10" NOx="1.06" PMx="0.03" fuel="992.26" electricity="0.00" noise="65.36" route="!fukanglu_north_T1.4" type="vt_car" waiting="0.00" lane="E19_3" pos="142.21" speed="14.36" angle="90.00" x="559.58" y="-402.00"/>
        <vehicle id="fukanglu_north_T1.6" eclass="HBEFA3/PC_G_EU4" CO2="2624.72" CO="164.78" HC="0.81" NOx="1.20" PMx="0.07" fuel="837.22" electricity="0.00" noise="55.94" route="!fukanglu_north_T1.6" type="vt_car" waiting="25.00" lane="-E17_2" pos="353.50" speed="0.00" angle="270.00" x="-374.50" y="-394.00"/>
        <vehicle id="fukanglu_north_T1.8" eclass="HBEFA3/PC_G_EU4" CO2="2624.58" CO="164.76" HC="0.81" NOx="1.20" PMx="0.07" fuel="837.18" electricity="0.00" noise="55.92" route="!fukanglu_north_T1.8" type="vt_car" waiting="5.00" lane="E10_2" pos="135.02" speed="0.00" angle="179.68" x="-402.34" y="-338.33"/>
        <vehicle id="fukanglu_south_T1.10" eclass="HBEFA3/PC_G_EU4" CO2="2624.72" CO="164.78" HC="0.81" NOx="1.20" PMx="0.07" fuel="837.22" electricity="0.00" noise="55.94" route="!fukanglu_south_T1.10" type="vt_car" waiting="17.00" lane="-E4_2" pos="169.51" speed="0.00" angle="359.98" x="7.52" y="-30.87"/>
        <vehicle id="fukanglu_south_T1.11" eclass="HBEFA3/PC_G_EU4" CO2="7871.69" CO="103.70" HC="0.66" NOx="3.30" PMx="0.16" fuel="2510.68" electricity="0.00" noise="69.32" route="!fukanglu_south_T1.11" type="vt_car" waiting="0.00" lane="E5_2" pos="53.07" speed="14.62" angle="89.98" x="75.60" y="-5.24"/>
        <vehicle id="fukanglu_south_T1.12" eclass="HBEFA3/PC_G_EU4" CO2="2624.72" CO="164.78" HC="0.81" NOx="1.20" PMx="0.07" fuel="837.22" electricity="0.00" noise="55.94" route="!fukanglu_south_T1.12" type="vt_car" waiting="12.00" lane="-E13_2" pos="178.00" speed="0.00" angle="0.00" x="6.00" y="-422.00"/>
        <vehicle id="fukanglu_south_T1.13" eclass="HBEFA3/PC_G_EU4" CO2="9280.24" CO="137.00" HC="0.85" NOx="3.98" PMx="0.19" fuel="2959.94" electricity="0.00" noise="70.74" route="!fukanglu_south_T1.13" type="vt_car" waiting="0.00" lane="-E13_2" pos="61.02" speed="13.87" angle="0.00" x="6.00" y="-538.98"/>
        <vehicle id="fukanglu_south_T1.6" eclass="HBEFA3/PC_G_EU4" CO2="2624.72" CO="164.78" HC="0.81" NOx="1.20" PMx="0.07" fuel="837.22" electricity="0.00" noise="55.94" route="!fukanglu_south_T1.6" type="vt_car" waiting="32.00" lane="-E4_3" pos="179.11" speed="0.00" angle="359.98" x="3.52" y="-21.27"/>
        <vehicle id="fukanglu_south_T1.7" eclass="HBEFA3/PC_G_EU4" CO2="2835.94" CO="17.37" HC="0.14" NOx="0.99" PMx="0.03" fuel="904.55" electricity="0.00" noise="63.76" route="!fukanglu_south_T1.7" type="vt_car" waiting="0.00" lane="E5_2" pos="308.83" speed="11.97" angle="89.98" x="331.36" y="-5.14"/>
        <vehicle id="fukanglu_south_T1.8" eclass="HBEFA3/HDV" CO2="7380.56" CO="15.20" HC="0.00" NOx="84.89" PMx="2.21" fuel="2321.67" electricity="0.00" noise="67.11" route="!fukanglu_south_T1.8" type="vt_truck" waiting="19.00" lane="-E4_2" pos="179.11" speed="0.00" angle="359.98" x="7.52" y="-21.27"/>
        <vehicle id="fukanglu_south_T1.9" eclass="HBEFA3/PC_G_EU4" CO2="0.00" CO="0.00" HC="0.00" NOx="0.00" PMx="0.00" fuel="0.00" electricity="0.00" noise="63.23" route="!fukanglu_south_T1.9" type="vt_car" waiting="0.00" lane="E5_3" pos="305.08" speed="14.12" angle="89.98" x="327.60" y="-1.14"/>
        <vehicle id="up2down_211.0" eclass="HBEFA3/Bus" CO2="8393.80" CO="20.40" HC="5.22" NOx="76.20" PMx="2.13" fuel="2655.68" electricity="0.00" noise="70.57" route="rt_UP2DOWN" type="BUS_B" waiting="0.00" lane="E7_1" pos="109.80" speed="6.88" angle="180.00" x="398.25" y="-129.92"/>
        <vehicle id="w2e_106.0" eclass="HBEFA3/Bus" CO2="7602.97" CO="18.55" HC="5.11" NOx="68.70" PMx="1.96" fuel="2405.75" electricity="0.00" noise="71.45" route="rt_W2E" type="BUS_A" waiting="0.00" lane="E2_2" pos="158.25" speed="8.78" angle="90.03" x="-225.86" y="-5.17"/>
        <vehicle id="xingminlu_north_T1.3" eclass="HBEFA3/PC_G_EU4" CO2="2128.83" CO="14.07" HC="0.11" NOx="0.69" PMx="0.01" fuel="679.02" electricity="0.00" noise="62.21" route="!xingminlu_north_T1.3" type="vt_car" waiting="0.00" lane="E5_1" pos="136.88" speed="10.61" angle="89.98" x="159.41" y="-9.21"/>
        <vehicle id="xingminlu_north_T1.4" eclass="HBEFA3/PC_G_EU4" CO2="0.00" CO="0.00" HC="0.00" NOx="0.00" PMx="0.00" fuel="0.00" electricity="0.00" noise="62.83" route="!xingminlu_north_T1.4" type="vt_car" waiting="0.00" lane="E5_1" pos="205.91" speed="13.62" angle="89.98" x="228.44" y="-9.18"/>
        <vehicle id="xingminlu_north_T1.5" eclass="HBEFA3/PC_G_EU4" CO2="0.00" CO="0.00" HC="0.00" NOx="0.00" PMx="0.00" fuel="0.00" electricity="0.00" noise="63.64" route="!xingminlu_north_T1.5" type="vt_car" waiting="0.00" lane="E5_1" pos="156.56" speed="13.81" angle="89.98" x="179.09" y="-9.20"/>
        <vehicle id="xingminlu_north_T1.6" eclass="HBEFA3/PC_G_EU4" CO2="2624.72" CO="164.78" HC="0.81" NOx="1.20" PMx="0.07" fuel="837.22" electricity="0.00" noise="55.94" route="!xingminlu_north_T1.6" type="vt_car" waiting="23.00" lane="-E3_2" pos="179.69" speed="0.00" angle="180.02" x="-403.11" y="22.91"/>
        <vehicle id="xingminlu_north_T1.7" eclass="HBEFA3/PC_G_EU4" CO2="2624.72" CO="164.78" HC="0.81" NOx="1.20" PMx="0.07" fuel="837.22" electricity="0.00" noise="55.94" route="!xingminlu_north_T1.7" type="vt_car" waiting="0.00" lane="-E3_1" pos="5.10" speed="0.00" angle="180.02" x="-407.06" y="197.50"/>
        <vehicle id="xingminlu_south_T1.1" eclass="HBEFA3/PC_G_EU4" CO2="2069.48" CO="0.27" HC="0.05" NOx="0.62" PMx="0.01" fuel="660.08" electricity="0.00" noise="63.22" route="!xingminlu_south_T1.1" type="vt_car" waiting="0.00" lane="-E0_2" pos="95.53" speed="12.15" angle="270.00" x="-513.65" y="6.91"/>
        <vehicle id="xingminlu_south_T1.10" eclass="HBEFA3/PC_G_EU4" CO2="2624.72" CO="164.78" HC="0.81" NOx="1.20" PMx="0.07" fuel="837.22" electricity="0.00" noise="55.94" route="!xingminlu_south_T1.10" type="vt_car" waiting="15.00" lane="-E11_2" pos="170.50" speed="0.00" angle="0.00" x="-398.00" y="-429.50"/>
        <vehicle id="xingminlu_south_T1.11" eclass="HBEFA3/PC_G_EU4" CO2="0.00" CO="0.00" HC="0.00" NOx="0.00" PMx="0.00" fuel="0.00" electricity="0.00" noise="63.83" route="!xingminlu_south_T1.11" type="vt_car" waiting="0.00" lane="E18_2" pos="172.88" speed="13.73" angle="90.00" x="194.01" y="-406.00"/>
        <vehicle id="xingminlu_south_T1.12" eclass="HBEFA3/PC_G_EU4" CO2="2624.72" CO="164.78" HC="0.81" NOx="1.20" PMx="0.07" fuel="837.22" electricity="0.00" noise="55.94" route="!xingminlu_south_T1.12" type="vt_car" waiting="14.00" lane="-E11_2" pos="163.00" speed="0.00" angle="0.00" x="-398.00" y="-437.00"/>
        <vehicle id="xingminlu_south_T1.13" eclass="HBEFA3/HDV" CO2="7380.64" CO="15.20" HC="0.00" NOx="84.89" PMx="2.21" fuel="2321.69" electricity="0.00" noise="67.11" route="!xingminlu_south_T1.13" type="vt_truck" waiting="10.00" lane="-E11_2" pos="155.50" speed="0.00" angle="0.00" x="-398.00" y="-444.50"/>
        <vehicle id="xingminlu_south_T1.14" eclass="HBEFA3/PC_G_EU4" CO2="0.00" CO="0.00" HC="0.00" NOx="0.00" PMx="0.00" fuel="0.00" electricity="0.00" noise="63.62" route="!xingminlu_south_T1.14" type="vt_car" waiting="0.00" lane="-E11_1" pos="145.53" speed="14.09" angle="0.00" x="-394.00" y="-454.47"/>
        <vehicle id="xingminlu_south_T1.5" eclass="HBEFA3/PC_G_EU4" CO2="0.00" CO="0.00" HC="0.00" NOx="0.00" PMx="0.00" fuel="0.00" electricity="0.00" noise="63.00" route="!xingminlu_south_T1.5" type="vt_car" waiting="0.00" lane="E18_1" pos="261.03" speed="13.73" angle="90.00" x="282.16" y="-410.00"/>
        <vehicle id="xingminlu_south_T1.7" eclass="HBEFA3/PC_G_EU4" CO2="0.00" CO="0.00" HC="0.00" NOx="0.00" PMx="0.00" fuel="0.00" electricity="0.00" noise="41.71" route="!xingminlu_south_T1.7" type="vt_car" waiting="0.00" lane="-E1_2" pos="181.78" speed="0.99" angle="359.99" x="-399.12" y="-21.22"/>
        <vehicle id="xingminlu_south_T1.8" eclass="HBEFA3/PC_G_EU4" CO2="3313.43" CO="15.22" HC="0.14" NOx="1.17" PMx="0.04" fuel="1056.84" electricity="0.00" noise="65.13" route="!xingminlu_south_T1.8" type="vt_car" waiting="0.00" lane="-E16_3" pos="183.86" speed="13.70" angle="270.00" x="-600.95" y="-398.00"/>
        <vehicle id="xingminlu_south_T1.9" eclass="HBEFA3/PC_G_EU4" CO2="2624.72" CO="164.78" HC="0.81" NOx="1.20" PMx="0.07" fuel="837.22" electricity="0.00" noise="55.94" route="!xingminlu_south_T1.9" type="vt_car" waiting="16.00" lane="-E11_2" pos="178.00" speed="0.00" angle="0.00" x="-398.00" y="-422.00"/>
        <vehicle id="yuanlinlu_east.100" eclass="HBEFA3/PC_G_EU4" CO2="2624.72" CO="164.78" HC="0.81" NOx="1.20" PMx="0.07" fuel="837.22" electricity="0.00" noise="55.94" route="!yuanlinlu_east.100" type="vt_car" waiting="0.00" lane="E16_3" pos="5.10" speed="0.00" angle="90.00" x="-794.90" y="-402.00"/>
        <vehicle id="yuanlinlu_east.13" eclass="HBEFA3/PC_G_EU4" CO2="0.00" CO="0.00" HC="0.00" NOx="0.00" PMx="0.00" fuel="0.00" electricity="0.00" noise="63.25" route="!yuanlinlu_east.13" type="vt_car" waiting="0.00" lane="E19_2" pos="286.59" speed="13.23" angle="90.00" x="703.96" y="-406.00"/>
        <vehicle id="yuanlinlu_east.14" eclass="HBEFA3/PC_G_EU4" CO2="3003.42" CO="9.43" HC="0.11" NOx="1.02" PMx="0.03" fuel="957.96" electricity="0.00" noise="64.85" route="!yuanlinlu_east.14" type="vt_car" waiting="0.00" lane="-E5_2" pos="118.47" speed="13.61" angle="269.98" x="268.76" y="6.83"/>
        <vehicle id="yuanlinlu_east.17" eclass="HBEFA3/PC_G_EU4" CO2="1350.22" CO="0.00" HC="0.00" NOx="0.26" PMx="0.00" fuel="430.68" electricity="0.00" noise="63.31" route="!yuanlinlu_east.17" type="vt_car" waiting="0.00" lane="E19_2" pos="261.01" speed="12.98" angle="90.00" x="678.38" y="-406.00"/>
        <vehicle id="yuanlinlu_east.19" eclass="HBEFA3/HDV" CO2="11173.76" CO="18.59" HC="0.00" NOx="102.18" PMx="2.40" fuel="3514.75" electricity="0.00" noise="73.17" route="!yuanlinlu_east.19" type="vt_truck" waiting="0.00" lane="E19_1" pos="189.24" speed="10.61" angle="90.00" x="606.61" y="-410.00"/>
        <vehicle id="yuanlinlu_east.21" eclass="HBEFA3/PC_G_EU4" CO2="4228.65" CO="28.45" HC="0.23" NOx="1.58" PMx="0.06" fuel="1348.74" electricity="0.00" noise="66.28" route="!yuanlinlu_east.21" type="vt_car" waiting="0.00" lane="E19_2" pos="205.03" speed="14.66" angle="90.00" x="622.40" y="-406.00"/>
        <vehicle id="yuanlinlu_east.22" eclass="HBEFA3/PC_G_EU4" CO2="5299.58" CO="61.03" HC="0.40" NOx="2.12" PMx="0.09" fuel="1690.31" electricity="0.00" noise="66.52" route="!yuanlinlu_east.22" type="vt_car" waiting="0.00" lane="E19_2" pos="166.89" speed="12.95" angle="90.00" x="584.26" y="-406.00"/>
        <vehicle id="yuanlinlu_east.24" eclass="HBEFA3/PC_G_EU4" CO2="2028.73" CO="0.00" HC="0.01" NOx="0.57" PMx="0.00" fuel="647.09" electricity="0.00" noise="63.93" route="!yuanlinlu_east.24" type="vt_car" waiting="0.00" lane="E18_2" pos="303.60" speed="13.23" angle="90.00" x="324.73" y="-406.00"/>
        <vehicle id="yuanlinlu_east.25" eclass="HBEFA3/HDV" CO2="0.00" CO="0.00" HC="0.00" NOx="0.00" PMx="0.00" fuel="0.00" electricity="0.00" noise="69.52" route="!yuanlinlu_east.25" type="vt_truck" waiting="0.00" lane="E18_1" pos="216.83" speed="9.79" angle="90.00" x="237.96" y="-410.00"/>
        <vehicle id="yuanlinlu_east.29" eclass="HBEFA3/PC_G_EU4" CO2="2624.72" CO="164.78" HC="0.81" NOx="1.20" PMx="0.07" fuel="837.22" electricity="0.00" noise="55.94" route="!yuanlinlu_east.29" type="vt_car" waiting="31.00" lane="E17_3" pos="353.50" speed="0.00" angle="90.00" x="-29.50" y="-402.00"/>
        <vehicle id="yuanlinlu_east.3" eclass="HBEFA3/PC_G_EU4" CO2="2069.36" CO="16.33" HC="0.12" NOx="0.67" PMx="0.01" fuel="660.05" electricity="0.00" noise="61.88" route="!yuanlinlu_east.3" type="vt_car" waiting="0.00" lane="E19_1" pos="283.15" speed="10.22" angle="90.00" x="700.52" y="-410.00"/>
        <vehicle id="yuanlinlu_east.30" eclass="HBEFA3/PC_G_EU4" CO2="6456.98" CO="74.57" HC="0.49" NOx="2.63" PMx="0.12" fuel="2059.46" electricity="0.00" noise="68.04" route="!yuanlinlu_east.30" type="vt_car" waiting="0.00" lane="E18_2" pos="223.92" speed="14.62" angle="90.00" x="245.05" y="-406.00"/>
        <vehicle id="yuanlinlu_east.31" eclass="HBEFA3/PC_G_EU4" CO2="2362.37" CO="0.00" HC="0.02" NOx="0.71" PMx="0.01" fuel="753.50" electricity="0.00" noise="64.77" route="!yuanlinlu_east.31" type="vt_car" waiting="0.00" lane="E18_2" pos="198.10" speed="14.19" angle="90.00" x="219.23" y="-406.00"/>
        <vehicle id="yuanlinlu_east.32" eclass="HBEFA3/HDV" CO2="7380.56" CO="15.20" HC="0.00" NOx="84.89" PMx="2.21" fuel="2321.67" electricity="0.00" noise="67.11" route="!yuanlinlu_east.32" type="vt_truck" waiting="60.00" lane="E16_2" pos="381.91" speed="0.00" angle="90.00" x="-418.09" y="-406.00"/>
        <vehicle id="yuanlinlu_east.34" eclass="HBEFA3/PC_G_EU4" CO2="2624.72" CO="164.78" HC="0.81" NOx="1.20" PMx="0.07" fuel="837.22" electricity="0.00" noise="55.94" route="!yuanlinlu_east.34" type="vt_car" waiting="57.00" lane="E16_2" pos="372.31" speed="0.00" angle="90.00" x="-427.69" y="-406.00"/>
        <vehicle id="yuanlinlu_east.35" eclass="HBEFA3/PC_G_EU4" CO2="2624.72" CO="164.78" HC="0.81" NOx="1.20" PMx="0.07" fuel="837.22" electricity="0.00" noise="55.94" route="!yuanlinlu_east.35" type="vt_car" waiting="56.00" lane="E16_2" pos="364.81" speed="0.00" angle="90.00" x="-435.19" y="-406.00"/>
        <vehicle id="yuanlinlu_east.36" eclass="HBEFA3/PC_G_EU4" CO2="2624.72" CO="164.78" HC="0.81" NOx="1.20" PMx="0.07" fuel="837.22" electricity="0.00" noise="55.94" route="!yuanlinlu_east.36" type="vt_car" waiting="53.00" lane="E16_2" pos="357.31" speed="0.00" angle="90.00" x="-442.69" y="-406.00"/>
        <vehicle id="yuanlinlu_east.37" eclass="HBEFA3/PC_G_EU4" CO2="2624.72" CO="164.78" HC="0.81" NOx="1.20" PMx="0.07" fuel="837.22" electricity="0.00" noise="55.94" route="!yuanlinlu_east.37" type="vt_car" waiting="53.00" lane="E16_2" pos="349.80" speed="0.00" angle="90.00" x="-450.20" y="-406.00"/>
        <vehicle id="yuanlinlu_east.38" eclass="HBEFA3/PC_G_EU4" CO2="2624.72" CO="164.78" HC="0.81" NOx="1.20" PMx="0.07" fuel="837.22" electricity="0.00" noise="55.94" route="!yuanlinlu_east.38" type="vt_car" waiting="51.00" lane="E16_2" pos="342.30" speed="0.00" angle="90.00" x="-457.70" y="-406.00"/>