<?xml version="1.0" encoding="UTF-8"?>

<!-- generated on 2024-04-07 17:31:45 by Eclipse SUMO sumo Version 1.19.0
<configuration xmlns:xsi="http://www.w3.org/2001/XMLSchema-instance" xsi:noNamespaceSchemaLocation="http://sumo.dlr.de/xsd/sumoConfiguration.xsd">

    <input>
        <net-file value="sumo_network/example42.net.xml"/>
        <route-files value="sumo_network/example42.rou.xml,sumo_network/bus.rou.xml,sumo_network/pedestrian.rou.xml"/>
        <additional-files value="sumo_network/busstops_def.add.xml,sumo_network/det_e3.add.xml,sumo_network/det_e2.add.xml,sumo_network/edgelane_dump.add.xml,sumo_network/signal-timing-dial.xml"/>
    </input>

    <output>
        <write-license value="false"/>
        <output-prefix value="OUTPUT-"/>
        <precision value="2"/>
        <human-readable-time value="false"/>
        <emission-output value="sumo_network/output/data_emission.xml"/>
        <emission-output.precision value="2"/>
        <queue-output value="sumo_network/output/data_Queue.xml"/>
        <queue-output.period value="300"/>
        <summary-output value="sumo_network/output/data_summary.xml"/>
        <summary-output.period value="300"/>
        <person-summary-output value="sumo_network/output/data_person_summary.xml"/>
        <personinfo-output value="sumo_network/output/data_personinfo.xml"/>
        <collision-output value="sumo_network/output/data_collision.xml"/>
        <edgedata-output value="sumo_network/output/data_edges.xml"/>
        <lanedata-output value="sumo_network/output/data_lanes.xml"/>
        <statistic-output value="sumo_network/output/data_statistic.xml"/>
    </output>

    <time>
        <begin value="0"/>
        <end value="3600"/>
        <step-length value="1"/>
    </time>

    <processing>
        <no-internal-links value="false"/>
        <ignore-route-errors value="true"/>
        <collision.action value="teleport"/>
        <intermodal-collision.action value="warn"/>
        <collision.stoptime value="0"/>
        <intermodal-collision.stoptime value="0"/>
        <collision.check-junctions value="false"/>
        <max-num-vehicles value="-1"/>
        <max-num-teleports value="-1"/>
        <time-to-teleport value="300"/>
        <time-to-teleport.remove value="false"/>
        <waiting-time-memory value="100"/>
        <max-depart-delay value="-1"/>
        <random-depart-offset value="0"/>
        <lanechange.duration value="0"/>
        <lanechange.overtake-right value="false"/>
        <tls.all-off value="false"/>
        <tls.yellow.min-decel value="3"/>
    </processing>

    <routing>
        <routing-algorithm value="dijkstra"/>
    </routing>

    <report>
        <verbose value="true"/>
        <no-warnings value="true"/>
        <log value="sumo_network/output/data_log.xml"/>
        <no-step-log value="true"/>
        <step-log.period value="300"/>
    </report>

    <emissions>
        <device.emissions.period value="300"/>
    </emissions>

    <traci_server>
        <remote-port value="8813"/>
    </traci_server>

    <mesoscopic>
        <mesosim value="false"/>
    </mesoscopic>

    <random_number>
        <random value="false"/>
        <seed value="23423"/>
    </random_number>

    <gui_only>
        <gui-settings-file value="sumo_network/viewsettings.xml"/>
        <start value="true"/>
        <demo value="false"/>
        <window-size value="800,600"/>
        <window-pos value="100,100"/>
    </gui_only>

</configuration>
-->

<emission-export xmlns:xsi="http://www.w3.org/2001/XMLSchema-instance" xsi:noNamespaceSchemaLocation="http://sumo.dlr.de/xsd/emission_file.xsd">
    <timestep time="0.00">
        <vehicle id="down2up_211.0" eclass="HBEFA3/Bus" CO2="5286.11" CO="20.17" HC="4.85" NOx="60.75" PMx="2.01" fuel="1671.11" electricity="0.00" noise="67.11" route="rt_DOWN2UP" type="BUS_A" waiting="0.00" lane="-E7_1" pos="12.10" speed="0.00" angle="360.00" x="410.25" y="-191.54"/>
        <vehicle id="feitianlu_north_T1.0" eclass="HBEFA3/PC_G_EU4" CO2="2624.72" CO="164.78" HC="0.81" NOx="1.20" PMx="0.07" fuel="837.22" electricity="0.00" noise="55.94" route="!feitianlu_north_T1.0" type="vt_car" waiting="0.00" lane="-E9_2" pos="5.10" speed="0.00" angle="180.02" x="402.32" y="202.61"/>
        <vehicle id="feitianlu_south_T1.0" eclass="HBEFA3/PC_G_EU4" CO2="2624.72" CO="164.78" HC="0.81" NOx="1.20" PMx="0.07" fuel="837.22" electricity="0.00" noise="55.94" route="!feitianlu_south_T1.0" type="vt_car" waiting="0.00" lane="-E7_2" pos="5.10" speed="0.00" angle="360.00" x="406.25" y="-198.54"/>
        <vehicle id="fukanglu_north_T1.0" eclass="HBEFA3/PC_G_EU4" CO2="2624.72" CO="164.78" HC="0.81" NOx="1.20" PMx="0.07" fuel="837.22" electricity="0.00" noise="55.94" route="!fukanglu_north_T1.0" type="vt_car" waiting="0.00" lane="-E6_1" pos="5.10" speed="0.00" angle="180.04" x="-8.35" y="199.74"/>
        <vehicle id="fukanglu_south_T1.0" eclass="HBEFA3/PC_G_EU4" CO2="2624.72" CO="164.78" HC="0.81" NOx="1.20" PMx="0.07" fuel="837.22" electricity="0.00" noise="55.94" route="!fukanglu_south_T1.0" type="vt_car" waiting="0.00" lane="-E4_2" pos="5.10" speed="0.00" angle="359.98" x="7.57" y="-195.43"/>
        <vehicle id="up2down_211.0" eclass="HBEFA3/Bus" CO2="5286.11" CO="20.17" HC="4.85" NOx="60.75" PMx="2.01" fuel="1671.11" electricity="0.00" noise="67.11" route="rt_UP2DOWN" type="BUS_B" waiting="0.00" lane="-E3_1" pos="12.10" speed="0.00" angle="180.02" x="-407.06" y="190.50"/>
        <vehicle id="w2e_106.0" eclass="HBEFA3/Bus" CO2="5286.11" CO="20.17" HC="4.85" NOx="60.75" PMx="2.01" fuel="1671.11" electricity="0.00" noise="67.11" route="rt_W2E" type="BUS_A" waiting="0.00" lane="E0_1" pos="12.10" speed="0.00" angle="90.00" x="-767.75" y="-9.09"/>
        <vehicle id="xingminlu_north_T1.0" eclass="HBEFA3/PC_G_EU4" CO2="2624.72" CO="164.78" HC="0.81" NOx="1.20" PMx="0.07" fuel="837.22" electricity="0.00" noise="55.94" route="!xingminlu_north_T1.0" type="vt_car" waiting="0.00" lane="-E3_2" pos="5.10" speed="0.00" angle="180.02" x="-403.06" y="197.50"/>
        <vehicle id="xingminlu_south_T1.0" eclass="HBEFA3/PC_G_EU4" CO2="2624.72" CO="164.78" HC="0.81" NOx="1.20" PMx="0.07" fuel="837.22" electricity="0.00" noise="55.94" route="!xingminlu_south_T1.0" type="vt_car" waiting="0.00" lane="-E1_1" pos="5.10" speed="0.00" angle="359.99" x="-395.09" y="-198.05"/>
        <vehicle id="yuanlinlu_east_T1.0" eclass="HBEFA3/PC_G_EU4" CO2="2624.72" CO="164.78" HC="0.81" NOx="1.20" PMx="0.07" fuel="837.22" electricity="0.00" noise="55.94" route="!yuanlinlu_east_T1.0" type="vt_car" waiting="0.00" lane="E0_2" pos="5.10" speed="0.00" angle="90.00" x="-774.75" y="-5.09"/>
        <vehicle id="yuanlinlu_west_T1.0" eclass="HBEFA3/PC_G_EU4" CO2="2624.72" CO="164.78" HC="0.81" NOx="1.20" PMx="0.07" fuel="837.22" electricity="0.00" noise="55.94" route="!yuanlinlu_west_T1.0" type="vt_car" waiting="0.00" lane="-E8_1" pos="5.10" speed="0.00" angle="270.03" x="741.78" y="10.69"/>
    </timestep>
    <timestep time="300.00">
        <vehicle id="down2up_211.0" eclass="HBEFA3/Bus" CO2="5286.11" CO="20.17" HC="4.85" NOx="60.75" PMx="2.01" fuel="1671.11" electricity="0.00" noise="67.11" route="rt_DOWN2UP" type="BUS_A" waiting="83.00" lane="-E5_2" pos="316.60" speed="0.00" angle="269.98" x="70.64" y="6.76"/>
        <vehicle id="e2w_106.0" eclass="HBEFA3/Bus" CO2="10899.85" CO="23.27" HC="5.55" NOx="94.02" PMx="2.44" fuel="3448.73" electricity="0.00" noise="71.56" route="rt_E2W" type="BUS_B" waiting="0.00" lane="-E5_1" pos="81.50" speed="6.93" angle="269.98" x="305.73" y="10.85"/>
        <vehicle id="feitianlu_north_T1.11" eclass="HBEFA3/PC_G_EU4" CO2="2624.72" CO="164.78" HC="0.81" NOx="1.20" PMx="0.07" fuel="837.22" electricity="0.00" noise="55.94" route="!feitianlu_north_T1.11" type="vt_car" waiting="61.00" lane="-E9_2" pos="184.82" speed="0.00" angle="180.02" x="402.25" y="22.89"/>
        <vehicle id="feitianlu_north_T1.12" eclass="HBEFA3/PC_G_EU4" CO2="2624.72" CO="164.78" HC="0.81" NOx="1.20" PMx="0.07" fuel="837.22" electricity="0.00" noise="55.94" route="!feitianlu_north_T1.12" type="vt_car" waiting="41.00" lane="-E9_2" pos="177.32" speed="0.00" angle="180.02" x="402.25" y="30.39"/>
        <vehicle id="feitianlu_north_T1.13" eclass="HBEFA3/PC_G_EU4" CO2="2624.72" CO="164.78" HC="0.81" NOx="1.20" PMx="0.07" fuel="837.22" electricity="0.00" noise="55.94" route="!feitianlu_north_T1.13" type="vt_car" waiting="23.00" lane="-E9_2" pos="169.82" speed="0.00" angle="180.02" x="402.26" y="37.89"/>
        <vehicle id="feitianlu_north_T1.14" eclass="HBEFA3/PC_G_EU4" CO2="2624.70" CO="164.77" HC="0.81" NOx="1.20" PMx="0.07" fuel="837.21" electricity="0.00" noise="55.91" route="!feitianlu_north_T1.14" type="vt_car" waiting="3.00" lane="-E9_2" pos="162.32" speed="0.00" angle="180.02" x="402.26" y="45.39"/>
        <vehicle id="feitianlu_north_T1.15" eclass="HBEFA3/PC_G_EU4" CO2="2624.72" CO="164.78" HC="0.81" NOx="1.20" PMx="0.07" fuel="837.22" electricity="0.00" noise="55.94" route="!feitianlu_north_T1.15" type="vt_car" waiting="0.00" lane="-E9_2" pos="5.10" speed="0.00" angle="180.02" x="402.32" y="202.61"/>
        <vehicle id="feitianlu_north_T1.9" eclass="HBEFA3/PC_G_EU4" CO2="2624.72" CO="164.78" HC="0.81" NOx="1.20" PMx="0.07" fuel="837.22" electricity="0.00" noise="55.94" route="!feitianlu_north_T1.9" type="vt_car" waiting="73.00" lane="-E5_2" pos="302.10" speed="0.00" angle="269.98" x="85.14" y="6.76"/>
        <vehicle id="feitianlu_south_T1.0" eclass="HBEFA3/PC_G_EU4" CO2="2230.95" CO="3.53" HC="0.06" NOx="0.70" PMx="0.01" fuel="711.58" electricity="0.00" noise="63.36" route="!feitianlu_south_T1.0" type="vt_car" waiting="0.00" lane="-E0_2" pos="92.59" speed="12.16" angle="270.00" x="-510.71" y="6.91"/>
        <vehicle id="feitianlu_south_T1.11" eclass="HBEFA3/PC_G_EU4" CO2="1415.43" CO="0.00" HC="0.00" NOx="0.29" PMx="0.00" fuel="451.48" electricity="0.00" noise="63.27" route="!feitianlu_south_T1.11" type="vt_car" waiting="0.00" lane="E8_2" pos="311.28" speed="12.87" angle="90.03" x="732.53" y="-5.30"/>
        <vehicle id="feitianlu_south_T1.12" eclass="HBEFA3/PC_G_EU4" CO2="5275.86" CO="64.42" HC="0.42" NOx="2.13" PMx="0.09" fuel="1682.75" electricity="0.00" noise="66.35" route="!feitianlu_south_T1.12" type="vt_car" waiting="0.00" lane="E8_1" pos="109.49" speed="12.40" angle="90.03" x="530.73" y="-9.18"/>
        <vehicle id="feitianlu_south_T1.13" eclass="HBEFA3/PC_G_EU4" CO2="11332.51" CO="175.90" HC="1.08" NOx="4.93" PMx="0.25" fuel="3614.50" electricity="0.00" noise="72.84" route="!feitianlu_south_T1.13" type="vt_car" waiting="0.00" lane="-E7_1" pos="62.79" speed="14.45" angle="360.00" x="410.25" y="-140.85"/>
        <vehicle id="feitianlu_south_T1.2" eclass="HBEFA3/PC_G_EU4" CO2="2118.50" CO="0.00" HC="0.01" NOx="0.61" PMx="0.01" fuel="675.72" electricity="0.00" noise="64.18" route="!feitianlu_south_T1.2" type="vt_car" waiting="0.00" lane="-E0_2" pos="64.75" speed="13.52" angle="270.00" x="-482.87" y="6.91"/>
        <vehicle id="fukanglu_north_T1.10" eclass="HBEFA3/PC_G_EU4" CO2="2397.58" CO="11.17" HC="0.10" NOx="0.79" PMx="0.02" fuel="764.73" electricity="0.00" noise="63.14" route="!fukanglu_north_T1.10" type="vt_car" waiting="0.00" lane="E8_2" pos="269.72" speed="11.61" angle="90.03" x="690.97" y="-5.28"/>
        <vehicle id="fukanglu_north_T1.12" eclass="HBEFA3/PC_G_EU4" CO2="2382.06" CO="8.27" HC="0.09" NOx="0.77" PMx="0.02" fuel="759.78" electricity="0.00" noise="63.34" route="!fukanglu_north_T1.12" type="vt_car" waiting="0.00" lane="E8_2" pos="248.60" speed="11.94" angle="90.03" x="669.85" y="-5.27"/>
        <vehicle id="fukanglu_north_T1.13" eclass="HBEFA3/PC_G_EU4" CO2="0.00" CO="0.00" HC="0.00" NOx="0.00" PMx="0.00" fuel="0.00" electricity="0.00" noise="62.35" route="!fukanglu_north_T1.13" type="vt_car" waiting="0.00" lane="E8_2" pos="224.42" speed="12.77" angle="90.03" x="645.67" y="-5.25"/>
        <vehicle id="fukanglu_north_T1.15" eclass="HBEFA3/PC_G_EU4" CO2="2624.72" CO="164.78" HC="0.81" NOx="1.20" PMx="0.07" fuel="837.22" electricity="0.00" noise="55.94" route="!fukanglu_north_T1.15" type="vt_car" waiting="17.00" lane="E5_1" pos="349.21" speed="0.00" angle="89.98" x="371.74" y="-9.13"/>
        <vehicle id="fukanglu_north_T1.16" eclass="HBEFA3/PC_G_EU4" CO2="0.00" CO="0.00" HC="0.00" NOx="0.00" PMx="0.00" fuel="0.00" electricity="0.00" noise="61.46" route="!fukanglu_north_T1.16" type="vt_car" waiting="0.00" lane="E8_2" pos="39.16" speed="11.66" angle="90.03" x="460.41" y="-5.14"/>
        <vehicle id="fukanglu_north_T1.17" eclass="HBEFA3/PC_G_EU4" CO2="1892.50" CO="11.70" HC="0.09" NOx="0.58" PMx="0.01" fuel="603.64" electricity="0.00" noise="61.77" route="!fukanglu_north_T1.17" type="vt_car" waiting="0.00" lane="-E2_3" pos="231.32" speed="10.33" angle="270.03" x="-250.81" y="2.84"/>
        <vehicle id="fukanglu_north_T1.18" eclass="HBEFA3/PC_G_EU4" CO2="2624.72" CO="164.78" HC="0.81" NOx="1.20" PMx="0.07" fuel="837.22" electricity="0.00" noise="55.94" route="!fukanglu_north_T1.18" type="vt_car" waiting="11.00" lane="-E6_3" pos="182.08" speed="0.00" angle="180.04" x="-0.48" y="22.75"/>
        <vehicle id="fukanglu_north_T1.19" eclass="HBEFA3/HDV" CO2="0.00" CO="0.00" HC="0.00" NOx="0.00" PMx="0.00" fuel="0.00" electricity="0.00" noise="69.69" route="!fukanglu_north_T1.19" type="vt_truck" waiting="0.00" lane="-E6_1" pos="142.72" speed="9.95" angle="180.04" x="-8.45" y="62.12"/>
        <vehicle id="fukanglu_north_T1.20" eclass="HBEFA3/PC_G_EU4" CO2="2624.72" CO="164.78" HC="0.81" NOx="1.20" PMx="0.07" fuel="837.22" electricity="0.00" noise="55.94" route="!fukanglu_north_T1.20" type="vt_car" waiting="0.00" lane="-E6_3" pos="5.10" speed="0.00" angle="180.04" x="-0.35" y="199.73"/>
        <vehicle id="fukanglu_north_T1.9" eclass="HBEFA3/PC_G_EU4" CO2="5100.85" CO="50.95" HC="0.35" NOx="2.01" PMx="0.08" fuel="1626.93" electricity="0.00" noise="66.64" route="!fukanglu_north_T1.9" type="vt_car" waiting="0.00" lane="-E0_2" pos="41.58" speed="13.87" angle="270.00" x="-459.70" y="6.91"/>
        <vehicle id="fukanglu_south_T1.10" eclass="HBEFA3/PC_G_EU4" CO2="1618.93" CO="0.00" HC="0.00" NOx="0.41" PMx="0.00" fuel="516.38" electricity="0.00" noise="62.89" route="!fukanglu_south_T1.10" type="vt_car" waiting="0.00" lane="E8_2" pos="199.13" speed="12.17" angle="90.03" x="620.38" y="-5.24"/>
        <vehicle id="fukanglu_south_T1.11" eclass="HBEFA3/PC_G_EU4" CO2="2624.72" CO="164.78" HC="0.81" NOx="1.20" PMx="0.07" fuel="837.22" electricity="0.00" noise="55.94" route="!fukanglu_south_T1.11" type="vt_car" waiting="33.00" lane="-E4_3" pos="179.26" speed="0.00" angle="359.98" x="3.52" y="-21.27"/>
        <vehicle id="fukanglu_south_T1.12" eclass="HBEFA3/PC_G_EU4" CO2="0.00" CO="0.00" HC="0.00" NOx="0.00" PMx="0.00" fuel="0.00" electricity="0.00" noise="61.66" route="!fukanglu_south_T1.12" type="vt_car" waiting="0.00" lane="E5_1" pos="89.12" speed="10.96" angle="89.98" x="111.65" y="-9.23"/>
        <vehicle id="fukanglu_south_T1.13" eclass="HBEFA3/PC_G_EU4" CO2="6209.40" CO="89.31" HC="0.55" NOx="2.59" PMx="0.12" fuel="1980.50" electricity="0.00" noise="67.30" route="!fukanglu_south_T1.13" type="vt_car" waiting="0.00" lane="-E4_2" pos="53.63" speed="11.66" angle="359.98" x="7.56" y="-146.90"/>
        <vehicle id="fukanglu_south_T1.7" eclass="HBEFA3/HDV" CO2="7380.56" CO="15.20" HC="0.00" NOx="84.89" PMx="2.21" fuel="2321.67" electricity="0.00" noise="67.11" route="!fukanglu_south_T1.7" type="vt_truck" waiting="60.00" lane="-E4_2" pos="179.26" speed="0.00" angle="359.98" x="7.52" y="-21.27"/>
        <vehicle id="fukanglu_south_T1.8" eclass="HBEFA3/PC_G_EU4" CO2="3811.88" CO="35.79" HC="0.25" NOx="1.44" PMx="0.05" fuel="1215.82" electricity="0.00" noise="64.79" route="!fukanglu_south_T1.8" type="vt_car" waiting="0.00" lane="E8_2" pos="291.73" speed="12.20" angle="90.03" x="712.98" y="-5.29"/>
        <vehicle id="fukanglu_south_T1.9" eclass="HBEFA3/PC_G_EU4" CO2="2624.72" CO="164.78" HC="0.81" NOx="1.20" PMx="0.07" fuel="837.22" electricity="0.00" noise="55.94" route="!fukanglu_south_T1.9" type="vt_car" waiting="59.00" lane="-E4_2" pos="169.66" speed="0.00" angle="359.98" x="7.52" y="-30.87"/>
        <vehicle id="up2down_211.0" eclass="HBEFA3/Bus" CO2="7671.10" CO="22.44" HC="5.16" NOx="76.78" PMx="2.26" fuel="2426.00" electricity="0.00" noise="73.13" route="rt_UP2DOWN" type="BUS_B" waiting="0.00" lane=":J6_17_0" pos="0.00" speed="1.00" angle="89.98" x="387.24" y="-9.12"/>
        <vehicle id="w2e_106.0" eclass="HBEFA3/Bus" CO2="5286.11" CO="20.17" HC="4.85" NOx="60.75" PMx="2.01" fuel="1671.11" electricity="0.00" noise="67.11" route="rt_W2E" type="BUS_A" waiting="11.00" lane="E0_2" pos="353.23" speed="0.00" angle="90.00" x="-426.62" y="-5.09"/>
        <vehicle id="xingminlu_north_T1.5" eclass="HBEFA3/PC_G_EU4" CO2="3280.96" CO="37.29" HC="0.24" NOx="1.23" PMx="0.04" fuel="1046.49" electricity="0.00" noise="63.51" route="!xingminlu_north_T1.5" type="vt_car" waiting="0.00" lane="E2_2" pos="269.01" speed="10.67" angle="90.03" x="-115.10" y="-5.22"/>
        <vehicle id="xingminlu_north_T1.6" eclass="HBEFA3/PC_G_EU4" CO2="2624.72" CO="164.78" HC="0.81" NOx="1.20" PMx="0.07" fuel="837.22" electricity="0.00" noise="55.94" route="!xingminlu_north_T1.6" type="vt_car" waiting="24.00" lane="-E3_2" pos="179.69" speed="0.00" angle="180.02" x="-403.11" y="22.91"/>
        <vehicle id="xingminlu_north_T1.7" eclass="HBEFA3/PC_G_EU4" CO2="2624.72" CO="164.78" HC="0.81" NOx="1.20" PMx="0.07" fuel="837.22" electricity="0.00" noise="55.94" route="!xingminlu_north_T1.7" type="vt_car" waiting="0.00" lane="-E3_2" pos="5.10" speed="0.00" angle="180.02" x="-403.06" y="197.50"/>
        <vehicle id="xingminlu_south_T1.13" eclass="HBEFA3/PC_G_EU4" CO2="4142.45" CO="108.29" HC="0.59" NOx="1.76" PMx="0.08" fuel="1321.27" electricity="0.00" noise="64.26" route="!xingminlu_south_T1.13" type="vt_car" waiting="0.00" lane=":J1_14_0" pos="13.54" speed="5.74" angle="339.88" x="-401.82" y="-6.98"/>
        <vehicle id="xingminlu_south_T1.14" eclass="HBEFA3/PC_G_EU4" CO2="5339.46" CO="53.59" HC="0.37" NOx="2.11" PMx="0.09" fuel="1703.03" electricity="0.00" noise="66.98" route="!xingminlu_south_T1.14" type="vt_car" waiting="0.00" lane="-E1_1" pos="145.26" speed="14.26" angle="359.99" x="-395.11" y="-57.89"/>
        <vehicle id="xingminlu_south_T1.6" eclass="HBEFA3/PC_G_EU4" CO2="0.00" CO="0.00" HC="0.00" NOx="0.00" PMx="0.00" fuel="0.00" electricity="0.00" noise="55.31" route="!xingminlu_south_T1.6" type="vt_car" waiting="0.00" lane="E5_2" pos="358.37" speed="8.73" angle="89.98" x="380.90" y="-5.12"/>
        <vehicle id="yuanlinlu_east_T1.0" eclass="HBEFA3/PC_G_EU4" CO2="7020.28" CO="99.95" HC="0.62" NOx="2.95" PMx="0.14" fuel="2239.13" electricity="0.00" noise="68.30" route="!yuanlinlu_east_T1.0" type="vt_car" waiting="0.00" lane="E8_2" pos="16.75" speed="12.45" angle="90.03" x="438.00" y="-5.13"/>
        <vehicle id="yuanlinlu_east_T1.12" eclass="HBEFA3/PC_G_EU4" CO2="0.00" CO="0.00" HC="0.00" NOx="0.00" PMx="0.00" fuel="0.00" electricity="0.00" noise="62.66" route="!yuanlinlu_east_T1.12" type="vt_car" waiting="0.00" lane="E5_2" pos="232.31" speed="13.05" angle="89.98" x="254.84" y="-5.17"/>
        <vehicle id="yuanlinlu_east_T1.13" eclass="HBEFA3/PC_G_EU4" CO2="2583.73" CO="0.00" HC="0.06" NOx="0.82" PMx="0.02" fuel="824.10" electricity="0.00" noise="64.64" route="!yuanlinlu_east_T1.13" type="vt_car" waiting="0.00" lane="E5_2" pos="209.64" speed="13.76" angle="89.98" x="232.17" y="-5.18"/>
        <vehicle id="yuanlinlu_east_T1.14" eclass="HBEFA3/PC_G_EU4" CO2="6220.01" CO="73.01" HC="0.48" NOx="2.53" PMx="0.11" fuel="1983.88" electricity="0.00" noise="67.68" route="!yuanlinlu_east_T1.14" type="vt_car" waiting="0.00" lane="E5_2" pos="184.99" speed="14.04" angle="89.98" x="207.52" y="-5.19"/>
        <vehicle id="yuanlinlu_east_T1.17" eclass="HBEFA3/PC_G_EU4" CO2="1398.67" CO="0.00" HC="0.00" NOx="0.25" PMx="0.00" fuel="446.13" electricity="0.00" noise="64.38" route="!yuanlinlu_east_T1.17" type="vt_car" waiting="0.00" lane="E2_3" pos="335.63" speed="14.42" angle="90.03" x="-48.48" y="-1.25"/>
        <vehicle id="yuanlinlu_east_T1.18" eclass="HBEFA3/PC_G_EU4" CO2="1929.97" CO="0.00" HC="0.02" NOx="0.55" PMx="0.00" fuel="615.59" electricity="0.00" noise="63.35" route="!yuanlinlu_east_T1.18" type="vt_car" waiting="0.00" lane="E2_1" pos="275.81" speed="12.49" angle="90.03" x="-108.30" y="-9.22"/>
        <vehicle id="yuanlinlu_east_T1.21" eclass="HBEFA3/PC_G_EU4" CO2="3334.91" CO="34.64" HC="0.23" NOx="1.24" PMx="0.04" fuel="1063.69" electricity="0.00" noise="63.78" route="!yuanlinlu_east_T1.21" type="vt_car" waiting="0.00" lane="E2_2" pos="248.12" speed="11.10" angle="90.03" x="-135.99" y="-5.21"/>
        <vehicle id="yuanlinlu_east_T1.22" eclass="HBEFA3/PC_G_EU4" CO2="3294.00" CO="36.10" HC="0.24" NOx="1.23" PMx="0.04" fuel="1050.64" electricity="0.00" noise="63.60" route="!yuanlinlu_east_T1.22" type="vt_car" waiting="0.00" lane="E2_2" pos="189.32" speed="10.83" angle="90.03" x="-194.79" y="-5.18"/>
        <vehicle id="yuanlinlu_east_T1.23" eclass="HBEFA3/HDV" CO2="17370.69" CO="25.47" HC="0.00" NOx="150.46" PMx="3.14" fuel="5464.21" electricity="0.00" noise="74.47" route="!yuanlinlu_east_T1.23" type="vt_truck" waiting="0.00" lane="E2_1" pos="160.23" speed="10.72" angle="90.03" x="-223.88" y="-9.17"/>
        <vehicle id="yuanlinlu_east_T1.27" eclass="HBEFA3/PC_G_EU4" CO2="2624.72" CO="164.78" HC="0.81" NOx="1.20" PMx="0.07" fuel="837.22" electricity="0.00" noise="55.94" route="!yuanlinlu_east_T1.27" type="vt_car" waiting="10.00" lane="E0_2" pos="338.73" speed="0.00" angle="90.00" x="-441.12" y="-5.09"/>
        <vehicle id="yuanlinlu_east_T1.28" eclass="HBEFA3/PC_G_EU4" CO2="2624.72" CO="164.78" HC="0.81" NOx="1.20" PMx="0.07" fuel="837.22" electricity="0.00" noise="55.94" route="!yuanlinlu_east_T1.28" type="vt_car" waiting="7.00" lane="E0_2" pos="331.23" speed="0.00" angle="90.00" x="-448.62" y="-5.09"/>
        <vehicle id="yuanlinlu_east_T1.29" eclass="HBEFA3/HDV" CO2="7380.91" CO="15.20" HC="0.00" NOx="84.89" PMx="2.21" fuel="2321.78" electricity="0.00" noise="67.10" route="!yuanlinlu_east_T1.29" type="vt_truck" waiting="7.00" lane="E0_2" pos="323.72" speed="0.00" angle="90.00" x="-456.13" y="-5.09"/>
        <vehicle id="yuanlinlu_east_T1.3" eclass="HBEFA3/PC_G_EU4" CO2="0.00" CO="0.00" HC="0.00" NOx="0.00" PMx="0.00" fuel="0.00" electricity="0.00" noise="59.42" route="!yuanlinlu_east_T1.3" type="vt_car" waiting="0.00" lane="E5_1" pos="261.76" speed="9.73" angle="89.98" x="284.29" y="-9.16"/>
        <vehicle id="yuanlinlu_east_T1.31" eclass="HBEFA3/PC_G_EU4" CO2="2624.72" CO="164.78" HC="0.81" NOx="1.20" PMx="0.07" fuel="837.22" electricity="0.00" noise="55.94" route="!yuanlinlu_east_T1.31" type="vt_car" waiting="15.00" lane="E0_2" pos="360.73" speed="0.00" angle="90.00" x="-419.12" y="-5.09"/>
        <vehicle id="yuanlinlu_east_T1.32" eclass="HBEFA3/PC_G_EU4" CO2="2622.89" CO="164.51" HC="0.81" NOx="1.20" PMx="0.07" fuel="836.64" electricity="0.00" noise="55.76" route="!yuanlinlu_east_T1.32" type="vt_car" waiting="3.00" lane="E0_2" pos="306.60" speed="0.01" angle="90.00" x="-473.25" y="-5.09"/>
        <vehicle id="yuanlinlu_east_T1.33" eclass="HBEFA3/PC_G_EU4" CO2="0.00" CO="0.00" HC="0.00" NOx="0.00" PMx="0.00" fuel="0.00" electricity="0.00" noise="54.74" route="!yuanlinlu_east_T1.33" type="vt_car" waiting="0.00" lane="E0_2" pos="291.31" speed="0.52" angle="90.00" x="-488.54" y="-5.09"/>
        <vehicle id="yuanlinlu_east_T1.35" eclass="HBEFA3/PC_G_EU4" CO2="2612.97" CO="163.12" HC="0.80" NOx="1.20" PMx="0.07" fuel="833.47" electricity="0.00" noise="55.68" route="!yuanlinlu_east_T1.35" type="vt_car" waiting="1.00" lane="E0_2" pos="299.07" speed="0.08" angle="90.00" x="-480.78" y="-5.09"/>
        <vehicle id="yuanlinlu_east_T1.36" eclass="HBEFA3/HDV" CO2="8105.08" CO="15.92" HC="0.00" NOx="89.25" PMx="2.27" fuel="2549.57" electricity="0.00" noise="68.03" route="!yuanlinlu_east_T1.36" type="vt_truck" waiting="0.00" lane="E0_2" pos="283.24" speed="1.12" angle="90.00" x="-496.61" y="-5.09"/>
        <vehicle id="yuanlinlu_east_T1.40" eclass="HBEFA3/PC_G_EU4" CO2="0.00" CO="0.00" HC="0.00" NOx="0.00" PMx="0.00" fuel="0.00" electricity="0.00" noise="50.55" route="!yuanlinlu_east_T1.40" type="vt_car" waiting="0.00" lane="E0_2" pos="271.84" speed="0.82" angle="90.00" x="-508.01" y="-5.09"/>
        <vehicle id="yuanlinlu_east_T1.41" eclass="HBEFA3/PC_G_EU4" CO2="0.00" CO="0.00" HC="0.00" NOx="0.00" PMx="0.00" fuel="0.00" electricity="0.00" noise="44.27" route="!yuanlinlu_east_T1.41" type="vt_car" waiting="0.00" lane="E0_2" pos="262.68" speed="2.13" angle="90.00" x="-517.17" y="-5.09"/>
        <vehicle id="yuanlinlu_east_T1.42" eclass="HBEFA3/PC_G_EU4" CO2="3296.19" CO="95.28" HC="0.51" NOx="1.37" PMx="0.06" fuel="1051.36" electricity="0.00" noise="61.88" route="!yuanlinlu_east_T1.42" type="vt_car" waiting="0.00" lane="E0_2" pos="251.14" speed="5.40" angle="90.00" x="-528.71" y="-5.09"/>
        <vehicle id="yuanlinlu_east_T1.44" eclass="HBEFA3/PC_G_EU4" CO2="2623.30" CO="164.56" HC="0.81" NOx="1.20" PMx="0.07" fuel="836.77" electricity="0.00" noise="55.93" route="!yuanlinlu_east_T1.44" type="vt_car" waiting="4.00" lane="E0_2" pos="314.12" speed="0.01" angle="90.00" x="-465.73" y="-5.09"/>
        <vehicle id="yuanlinlu_east_T1.48" eclass="HBEFA3/PC_G_EU4" CO2="1944.74" CO="69.21" HC="0.36" NOx="0.74" PMx="0.02" fuel="620.32" electricity="0.00" noise="57.90" route="!yuanlinlu_east_T1.48" type="vt_car" waiting="0.00" lane="E0_2" pos="237.37" speed="5.27" angle="90.00" x="-542.48" y="-5.09"/>
        <vehicle id="yuanlinlu_east_T1.49" eclass="HBEFA3/PC_G_EU4" CO2="2581.61" CO="92.01" HC="0.48" NOx="1.06" PMx="0.04" fuel="823.45" electricity="0.00" noise="59.41" route="!yuanlinlu_east_T1.49" type="vt_car" waiting="0.00" lane="E0_2" pos="223.29" speed="4.56" angle="90.00" x="-556.56" y="-5.09"/>
        <vehicle id="yuanlinlu_east_T1.5" eclass="HBEFA3/PC_G_EU4" CO2="3285.29" CO="10.50" HC="0.12" NOx="1.14" PMx="0.04" fuel="1047.86" electricity="0.00" noise="65.49" route="!yuanlinlu_east_T1.5" type="vt_car" waiting="0.00" lane="E5_3" pos="341.11" speed="14.40" angle="89.98" x="363.63" y="-1.13"/>
        <vehicle id="yuanlinlu_east_T1.51" eclass="HBEFA3/PC_G_EU4" CO2="2602.90" CO="91.55" HC="0.48" NOx="1.07" PMx="0.04" fuel="830.24" electricity="0.00" noise="59.51" route="!yuanlinlu_east_T1.51" type="vt_car" waiting="0.00" lane="E0_2" pos="210.90" speed="4.62" angle="90.00" x="-568.95" y="-5.09"/>
        <vehicle id="yuanlinlu_east_T1.52" eclass="HBEFA3/PC_G_EU4" CO2="4314.24" CO="142.65" HC="0.75" NOx="1.91" PMx="0.09" fuel="1376.07" electricity="0.00" noise="67.17" route="!yuanlinlu_east_T1.52" type="vt_car" waiting="0.00" lane="E0_2" pos="196.87" speed="3.51" angle="90.00" x="-582.98" y="-5.09"/>
        <vehicle id="yuanlinlu_east_T1.53" eclass="HBEFA3/PC_G_EU4" CO2="2592.92" CO="146.11" HC="0.73" NOx="1.16" PMx="0.06" fuel="827.07" electricity="0.00" noise="57.88" route="!yuanlinlu_east_T1.53" type="vt_car" waiting="0.00" lane="E0_2" pos="185.40" speed="1.05" angle="90.00" x="-594.45" y="-5.09"/>
        <vehicle id="yuanlinlu_east_T1.54" eclass="HBEFA3/PC_G_EU4" CO2="0.00" CO="0.00" HC="0.00" NOx="0.00" PMx="0.00" fuel="0.00" electricity="0.00" noise="55.73" route="!yuanlinlu_east_T1.54" type="vt_car" waiting="0.00" lane="E0_2" pos="176.63" speed="0.51" angle="90.00" x="-603.22" y="-5.09"/>
        <vehicle id="yuanlinlu_east_T1.55" eclass="HBEFA3/PC_G_EU4" CO2="2584.57" CO="158.14" HC="0.78" NOx="1.18" PMx="0.06" fuel="824.41" electricity="0.00" noise="56.17" route="!yuanlinlu_east_T1.55" type="vt_car" waiting="0.00" lane="E0_2" pos="168.33" speed="0.33" angle="90.00" x="-611.52" y="-5.09"/>
        <vehicle id="yuanlinlu_east_T1.56" eclass="HBEFA3/HDV" CO2="7496.61" CO="15.31" HC="0.00" NOx="85.52" PMx="2.22" fuel="2358.17" electricity="0.00" noise="67.23" route="!yuanlinlu_east_T1.56" type="vt_truck" waiting="0.00" lane="E0_2" pos="160.40" speed="0.23" angle="90.00" x="-619.45" y="-5.09"/>
        <vehicle id="yuanlinlu_east_T1.59" eclass="HBEFA3/PC_G_EU4" CO2="2607.89" CO="160.72" HC="0.79" NOx="1.19" PMx="0.06" fuel="831.85" electricity="0.00" noise="56.83" route="!yuanlinlu_east_T1.59" type="vt_car" waiting="0.00" lane="E0_2" pos="150.54" speed="0.21" angle="90.00" x="-629.31" y="-5.09"/>
        <vehicle id="yuanlinlu_east_T1.63" eclass="HBEFA3/PC_G_EU4" CO2="2621.79" CO="164.30" HC="0.81" NOx="1.20" PMx="0.07" fuel="836.29" electricity="0.00" noise="56.04" route="!yuanlinlu_east_T1.63" type="vt_car" waiting="95.00" lane="E0_2" pos="142.83" speed="0.02" angle="90.00" x="-637.02" y="-5.09"/>
        <vehicle id="yuanlinlu_east_T1.67" eclass="HBEFA3/PC_G_EU4" CO2="2624.51" CO="164.74" HC="0.81" NOx="1.20" PMx="0.07" fuel="837.16" electricity="0.00" noise="55.95" route="!yuanlinlu_east_T1.67" type="vt_car" waiting="85.00" lane="E0_2" pos="135.30" speed="0.00" angle="90.00" x="-644.55" y="-5.09"/>
        <vehicle id="yuanlinlu_east_T1.69" eclass="HBEFA3/HDV" CO2="11107.60" CO="18.54" HC="0.00" NOx="101.97" PMx="2.39" fuel="3493.94" electricity="0.00" noise="72.99" route="!yuanlinlu_east_T1.69" type="vt_truck" waiting="0.00" lane="E3_2" pos="155.91" speed="10.34" angle="0.02" x="-399.07" y="177.82"/>
        <vehicle id="yuanlinlu_east_T1.70" eclass="HBEFA3/PC_G_EU4" CO2="2624.72" CO="164.78" HC="0.81" NOx="1.20" PMx="0.07" fuel="837.22" electricity="0.00" noise="55.94" route="!yuanlinlu_east_T1.70" type="vt_car" waiting="74.00" lane="E0_2" pos="127.80" speed="0.00" angle="90.00" x="-652.05" y="-5.09"/>