<?xml version="1.0" encoding="UTF-8"?>

<!-- generated on 2024-11-05 11:58:09 by Eclipse SUMO sumo Version 1.20.0
<configuration xmlns:xsi="http://www.w3.org/2001/XMLSchema-instance" xsi:noNamespaceSchemaLocation="http://sumo.dlr.de/xsd/sumoConfiguration.xsd">

    <input>
        <net-file value="sumo_network/example42.net.xml"/>
        <route-files value="sumo_network/example42.rou.xml,sumo_network/bus.rou.xml,sumo_network/pedestrian.rou.xml"/>
        <additional-files value="sumo_network/busstops_def.add.xml,sumo_network/det_e3.add.xml,sumo_network/det_e2.add.xml,sumo_network/edgelane_dump.add.xml,sumo_network/signal-timing-dial.xml"/>
    </input>

    <output>
        <write-license value="false"/>
        <output-prefix value="OUTPUT-"/>
        <precision value="2"/>
        <human-readable-time value="false"/>
        <emission-output value="sumo_network/output/data_emission.xml"/>
        <emission-output.precision value="2"/>
        <queue-output value="sumo_network/output/data_Queue.xml"/>
        <queue-output.period value="300"/>
        <summary-output value="sumo_network/output/data_summary.xml"/>
        <summary-output.period value="300"/>
        <person-summary-output value="sumo_network/output/data_person_summary.xml"/>
        <personinfo-output value="sumo_network/output/data_personinfo.xml"/>
        <collision-output value="sumo_network/output/data_collision.xml"/>
        <edgedata-output value="sumo_network/output/data_edges.xml"/>
        <lanedata-output value="sumo_network/output/data_lanes.xml"/>
        <statistic-output value="sumo_network/output/data_statistic.xml"/>
    </output>

    <time>
        <begin value="0"/>
        <end value="3600"/>
        <step-length value="1"/>
    </time>

    <processing>
        <no-internal-links value="false"/>
        <ignore-route-errors value="true"/>
        <collision.action value="teleport"/>
        <intermodal-collision.action value="warn"/>
        <collision.stoptime value="0"/>
        <intermodal-collision.stoptime value="0"/>
        <collision.check-junctions value="false"/>
        <max-num-vehicles value="-1"/>
        <max-num-teleports value="-1"/>
        <time-to-teleport value="300"/>
        <time-to-teleport.remove value="false"/>
        <waiting-time-memory value="100"/>
        <max-depart-delay value="-1"/>
        <random-depart-offset value="0"/>
        <lanechange.duration value="0"/>
        <lanechange.overtake-right value="false"/>
        <tls.all-off value="false"/>
        <tls.yellow.min-decel value="3"/>
    </processing>

    <routing>
        <routing-algorithm value="dijkstra"/>
    </routing>

    <report>
        <verbose value="true"/>
        <no-warnings value="true"/>
        <log value="sumo_network/output/data_log.xml"/>
        <no-step-log value="true"/>
        <step-log.period value="300"/>
    </report>

    <emissions>
        <device.emissions.period value="300"/>
    </emissions>

    <traci_server>
        <remote-port value="8813"/>
    </traci_server>

    <mesoscopic>
        <mesosim value="false"/>
    </mesoscopic>

    <random_number>
        <random value="false"/>
        <seed value="23423"/>
    </random_number>

    <gui_only>
        <gui-settings-file value="sumo_network/viewsettings.xml"/>
        <start value="true"/>
        <demo value="false"/>
        <window-size value="800,600"/>
        <window-pos value="100,100"/>
    </gui_only>

</configuration>
-->

<emission-export xmlns:xsi="http://www.w3.org/2001/XMLSchema-instance" xsi:noNamespaceSchemaLocation="http://sumo.dlr.de/xsd/emission_file.xsd">
    <timestep time="0.00">
        <vehicle id="down2up_211.0" eclass="HBEFA3/Bus" CO2="5286.11" CO="20.17" HC="4.85" NOx="60.75" PMx="2.01" fuel="1671.11" electricity="0.00" noise="67.11" route="rt_DOWN2UP" type="BUS_A" waiting="0.00" lane="-E7_1" pos="12.10" speed="0.00" angle="360.00" x="410.25" y="-191.54"/>
        <vehicle id="feitianlu_north_T1.0" eclass="HBEFA3/PC_G_EU4" CO2="2624.72" CO="164.78" HC="0.81" NOx="1.20" PMx="0.07" fuel="837.22" electricity="0.00" noise="55.94" route="!feitianlu_north_T1.0" type="vt_car" waiting="0.00" lane="-E9_2" pos="5.10" speed="0.00" angle="180.02" x="402.32" y="202.61"/>
        <vehicle id="feitianlu_south_T1.0" eclass="HBEFA3/PC_G_EU4" CO2="2624.72" CO="164.78" HC="0.81" NOx="1.20" PMx="0.07" fuel="837.22" electricity="0.00" noise="55.94" route="!feitianlu_south_T1.0" type="vt_car" waiting="0.00" lane="-E7_2" pos="5.10" speed="0.00" angle="360.00" x="406.25" y="-198.54"/>
        <vehicle id="fukanglu_north_T1.0" eclass="HBEFA3/PC_G_EU4" CO2="2624.72" CO="164.78" HC="0.81" NOx="1.20" PMx="0.07" fuel="837.22" electricity="0.00" noise="55.94" route="!fukanglu_north_T1.0" type="vt_car" waiting="0.00" lane="-E6_1" pos="5.10" speed="0.00" angle="180.04" x="-8.35" y="199.74"/>
        <vehicle id="fukanglu_south_T1.0" eclass="HBEFA3/PC_G_EU4" CO2="2624.72" CO="164.78" HC="0.81" NOx="1.20" PMx="0.07" fuel="837.22" electricity="0.00" noise="55.94" route="!fukanglu_south_T1.0" type="vt_car" waiting="0.00" lane="-E4_2" pos="5.10" speed="0.00" angle="359.98" x="7.57" y="-195.43"/>
        <vehicle id="up2down_211.0" eclass="HBEFA3/Bus" CO2="5286.11" CO="20.17" HC="4.85" NOx="60.75" PMx="2.01" fuel="1671.11" electricity="0.00" noise="67.11" route="rt_UP2DOWN" type="BUS_B" waiting="0.00" lane="-E3_1" pos="12.10" speed="0.00" angle="180.02" x="-407.06" y="190.50"/>
        <vehicle id="w2e_106.0" eclass="HBEFA3/Bus" CO2="5286.11" CO="20.17" HC="4.85" NOx="60.75" PMx="2.01" fuel="1671.11" electricity="0.00" noise="67.11" route="rt_W2E" type="BUS_A" waiting="0.00" lane="E0_1" pos="12.10" speed="0.00" angle="90.00" x="-767.75" y="-9.09"/>
        <vehicle id="xingminlu_north_T1.0" eclass="HBEFA3/PC_G_EU4" CO2="2624.72" CO="164.78" HC="0.81" NOx="1.20" PMx="0.07" fuel="837.22" electricity="0.00" noise="55.94" route="!xingminlu_north_T1.0" type="vt_car" waiting="0.00" lane="-E3_2" pos="5.10" speed="0.00" angle="180.02" x="-403.06" y="197.50"/>
        <vehicle id="xingminlu_south_T1.0" eclass="HBEFA3/PC_G_EU4" CO2="2624.72" CO="164.78" HC="0.81" NOx="1.20" PMx="0.07" fuel="837.22" electricity="0.00" noise="55.94" route="!xingminlu_south_T1.0" type="vt_car" waiting="0.00" lane="-E1_1" pos="5.10" speed="0.00" angle="359.99" x="-395.09" y="-198.05"/>
        <vehicle id="yuanlinlu_east_T1.0" eclass="HBEFA3/PC_G_EU4" CO2="2624.72" CO="164.78" HC="0.81" NOx="1.20" PMx="0.07" fuel="837.22" electricity="0.00" noise="55.94" route="!yuanlinlu_east_T1.0" type="vt_car" waiting="0.00" lane="E0_2" pos="5.10" speed="0.00" angle="90.00" x="-774.75" y="-5.09"/>
        <vehicle id="yuanlinlu_west_T1.0" eclass="HBEFA3/PC_G_EU4" CO2="2624.72" CO="164.78" HC="0.81" NOx="1.20" PMx="0.07" fuel="837.22" electricity="0.00" noise="55.94" route="!yuanlinlu_west_T1.0" type="vt_car" waiting="0.00" lane="-E8_1" pos="5.10" speed="0.00" angle="270.03" x="741.78" y="10.69"/>
    </timestep>
    <timestep time="300.00">
        <vehicle id="down2up_211.0" eclass="HBEFA3/Bus" CO2="0.00" CO="0.00" HC="0.00" NOx="0.00" PMx="0.00" fuel="0.00" electricity="0.00" noise="71.74" route="rt_DOWN2UP" type="BUS_A" waiting="0.00" lane="-E2_1" pos="211.90" speed="8.57" angle="270.03" x="-231.39" y="10.83"/>
        <vehicle id="e2w_106.0" eclass="HBEFA3/Bus" CO2="0.00" CO="0.00" HC="0.00" NOx="0.00" PMx="0.00" fuel="0.00" electricity="0.00" noise="69.57" route="rt_E2W" type="BUS_B" waiting="0.00" lane="-E5_1" pos="141.97" speed="6.61" angle="269.98" x="245.26" y="10.83"/>
        <vehicle id="feitianlu_north_T1.13" eclass="HBEFA3/PC_G_EU4" CO2="2624.72" CO="164.78" HC="0.81" NOx="1.20" PMx="0.07" fuel="837.22" electricity="0.00" noise="55.94" route="!feitianlu_north_T1.13" type="vt_car" waiting="20.00" lane="-E9_2" pos="184.82" speed="0.00" angle="180.02" x="402.25" y="22.89"/>
        <vehicle id="feitianlu_north_T1.14" eclass="HBEFA3/PC_G_EU4" CO2="2623.91" CO="164.65" HC="0.81" NOx="1.20" PMx="0.07" fuel="836.96" electricity="0.00" noise="55.87" route="!feitianlu_north_T1.14" type="vt_car" waiting="2.00" lane="-E9_2" pos="177.31" speed="0.01" angle="180.02" x="402.25" y="30.40"/>
        <vehicle id="feitianlu_north_T1.15" eclass="HBEFA3/PC_G_EU4" CO2="2624.72" CO="164.78" HC="0.81" NOx="1.20" PMx="0.07" fuel="837.22" electricity="0.00" noise="55.94" route="!feitianlu_north_T1.15" type="vt_car" waiting="0.00" lane="-E9_2" pos="5.10" speed="0.00" angle="180.02" x="402.32" y="202.61"/>
        <vehicle id="feitianlu_north_T1.9" eclass="HBEFA3/PC_G_EU4" CO2="2624.72" CO="164.78" HC="0.81" NOx="1.20" PMx="0.07" fuel="837.22" electricity="0.00" noise="55.94" route="!feitianlu_north_T1.9" type="vt_car" waiting="27.00" lane="-E5_2" pos="363.71" speed="0.00" angle="269.98" x="23.53" y="6.74"/>
        <vehicle id="feitianlu_south_T1.12" eclass="HBEFA3/PC_G_EU4" CO2="2124.89" CO="7.25" HC="0.08" NOx="0.67" PMx="0.01" fuel="677.76" electricity="0.00" noise="62.76" route="!feitianlu_south_T1.12" type="vt_car" waiting="0.00" lane="E8_1" pos="106.79" speed="11.40" angle="90.03" x="528.03" y="-9.18"/>
        <vehicle id="feitianlu_south_T1.13" eclass="HBEFA3/PC_G_EU4" CO2="7884.82" CO="104.89" HC="0.67" NOx="3.31" PMx="0.16" fuel="2514.87" electricity="0.00" noise="69.31" route="!feitianlu_south_T1.13" type="vt_car" waiting="0.00" lane="-E7_1" pos="63.97" speed="14.45" angle="360.00" x="410.25" y="-139.67"/>
        <vehicle id="fukanglu_north_T1.13" eclass="HBEFA3/PC_G_EU4" CO2="0.00" CO="0.00" HC="0.00" NOx="0.00" PMx="0.00" fuel="0.00" electricity="0.00" noise="62.42" route="!fukanglu_north_T1.13" type="vt_car" waiting="0.00" lane="E8_1" pos="325.12" speed="12.76" angle="90.03" x="746.36" y="-9.31"/>
        <vehicle id="fukanglu_north_T1.15" eclass="HBEFA3/PC_G_EU4" CO2="0.00" CO="0.00" HC="0.00" NOx="0.00" PMx="0.00" fuel="0.00" electricity="0.00" noise="60.60" route="!fukanglu_north_T1.15" type="vt_car" waiting="0.00" lane="E5_2" pos="84.25" speed="11.08" angle="89.98" x="106.78" y="-5.23"/>
        <vehicle id="fukanglu_north_T1.16" eclass="HBEFA3/PC_G_EU4" CO2="2643.18" CO="10.87" HC="0.11" NOx="0.89" PMx="0.02" fuel="843.06" electricity="0.00" noise="63.80" route="!fukanglu_north_T1.16" type="vt_car" waiting="0.00" lane="E5_2" pos="63.80" speed="12.31" angle="89.98" x="86.33" y="-5.24"/>
        <vehicle id="fukanglu_north_T1.17" eclass="HBEFA3/PC_G_EU4" CO2="2023.66" CO="12.12" HC="0.10" NOx="0.64" PMx="0.01" fuel="645.47" electricity="0.00" noise="62.09" route="!fukanglu_north_T1.17" type="vt_car" waiting="0.00" lane="-E2_3" pos="227.83" speed="10.58" angle="270.03" x="-247.32" y="2.84"/>
        <vehicle id="fukanglu_north_T1.18" eclass="HBEFA3/PC_G_EU4" CO2="5633.79" CO="97.68" HC="0.58" NOx="2.37" PMx="0.11" fuel="1796.92" electricity="0.00" noise="66.54" route="!fukanglu_north_T1.18" type="vt_car" waiting="0.00" lane="E5_3" pos="23.13" speed="9.38" angle="89.98" x="45.66" y="-1.25"/>
        <vehicle id="fukanglu_north_T1.19" eclass="HBEFA3/HDV" CO2="0.00" CO="0.00" HC="0.00" NOx="0.00" PMx="0.00" fuel="0.00" electricity="0.00" noise="69.69" route="!fukanglu_north_T1.19" type="vt_truck" waiting="0.00" lane="-E6_1" pos="142.72" speed="9.95" angle="180.04" x="-8.45" y="62.12"/>
        <vehicle id="fukanglu_north_T1.20" eclass="HBEFA3/PC_G_EU4" CO2="2624.72" CO="164.78" HC="0.81" NOx="1.20" PMx="0.07" fuel="837.22" electricity="0.00" noise="55.94" route="!fukanglu_north_T1.20" type="vt_car" waiting="0.00" lane="-E6_3" pos="5.10" speed="0.00" angle="180.04" x="-0.35" y="199.73"/>
        <vehicle id="fukanglu_south_T1.10" eclass="HBEFA3/PC_G_EU4" CO2="1694.38" CO="0.00" HC="0.00" NOx="0.44" PMx="0.00" fuel="540.45" electricity="0.00" noise="62.94" route="!fukanglu_south_T1.10" type="vt_car" waiting="0.00" lane="E8_2" pos="229.63" speed="12.15" angle="90.03" x="650.88" y="-5.25"/>
        <vehicle id="fukanglu_south_T1.11" eclass="HBEFA3/PC_G_EU4" CO2="0.00" CO="0.00" HC="0.00" NOx="0.00" PMx="0.00" fuel="0.00" electricity="0.00" noise="59.16" route="!fukanglu_south_T1.11" type="vt_car" waiting="0.00" lane="-E2_3" pos="206.62" speed="10.88" angle="270.03" x="-226.11" y="2.83"/>
        <vehicle id="fukanglu_south_T1.12" eclass="HBEFA3/PC_G_EU4" CO2="0.00" CO="0.00" HC="0.00" NOx="0.00" PMx="0.00" fuel="0.00" electricity="0.00" noise="61.32" route="!fukanglu_south_T1.12" type="vt_car" waiting="0.00" lane="E5_1" pos="87.26" speed="10.91" angle="89.98" x="109.79" y="-9.23"/>
        <vehicle id="fukanglu_south_T1.13" eclass="HBEFA3/PC_G_EU4" CO2="3305.33" CO="30.67" HC="0.21" NOx="1.22" PMx="0.04" fuel="1054.26" electricity="0.00" noise="63.96" route="!fukanglu_south_T1.13" type="vt_car" waiting="0.00" lane="-E4_2" pos="57.10" speed="11.51" angle="359.98" x="7.55" y="-143.43"/>
        <vehicle id="up2down_211.0" eclass="HBEFA3/Bus" CO2="12248.44" CO="24.86" HC="5.73" NOx="103.70" PMx="2.61" fuel="3875.48" electricity="0.00" noise="72.07" route="rt_UP2DOWN" type="BUS_B" waiting="0.00" lane="E7_1" pos="117.17" speed="6.86" angle="180.00" x="398.25" y="-137.29"/>
        <vehicle id="w2e_106.0" eclass="HBEFA3/Bus" CO2="0.00" CO="0.00" HC="0.00" NOx="0.00" PMx="0.00" fuel="0.00" electricity="0.00" noise="71.97" route="rt_W2E" type="BUS_A" waiting="0.00" lane="E2_2" pos="267.42" speed="8.52" angle="90.03" x="-116.69" y="-5.22"/>
        <vehicle id="xingminlu_north_T1.3" eclass="HBEFA3/PC_G_EU4" CO2="3386.28" CO="147.69" HC="0.75" NOx="1.51" PMx="0.08" fuel="1080.11" electricity="0.00" noise="65.23" route="!xingminlu_north_T1.3" type="vt_car" waiting="0.00" lane=":J3_19_0" pos="0.94" speed="1.94" angle="88.50" x="-18.56" y="-1.13"/>
        <vehicle id="xingminlu_north_T1.5" eclass="HBEFA3/PC_G_EU4" CO2="2624.72" CO="164.78" HC="0.81" NOx="1.20" PMx="0.07" fuel="837.22" electricity="0.00" noise="55.94" route="!xingminlu_north_T1.5" type="vt_car" waiting="51.00" lane="-E3_2" pos="180.04" speed="0.00" angle="180.02" x="-403.11" y="22.56"/>
        <vehicle id="xingminlu_north_T1.6" eclass="HBEFA3/PC_G_EU4" CO2="2624.72" CO="164.78" HC="0.81" NOx="1.20" PMx="0.07" fuel="837.22" electricity="0.00" noise="55.94" route="!xingminlu_north_T1.6" type="vt_car" waiting="24.00" lane="-E3_2" pos="172.53" speed="0.00" angle="180.02" x="-403.11" y="30.07"/>
        <vehicle id="xingminlu_north_T1.7" eclass="HBEFA3/PC_G_EU4" CO2="2624.72" CO="164.78" HC="0.81" NOx="1.20" PMx="0.07" fuel="837.22" electricity="0.00" noise="55.94" route="!xingminlu_north_T1.7" type="vt_car" waiting="0.00" lane="-E3_2" pos="5.10" speed="0.00" angle="180.02" x="-403.06" y="197.50"/>
        <vehicle id="xingminlu_south_T1.11" eclass="HBEFA3/PC_G_EU4" CO2="2624.72" CO="164.78" HC="0.81" NOx="1.20" PMx="0.07" fuel="837.22" electricity="0.00" noise="55.94" route="!xingminlu_south_T1.11" type="vt_car" waiting="47.00" lane="-E1_2" pos="182.05" speed="0.00" angle="359.99" x="-399.12" y="-21.10"/>
        <vehicle id="xingminlu_south_T1.12" eclass="HBEFA3/HDV" CO2="7380.56" CO="15.20" HC="0.00" NOx="84.89" PMx="2.21" fuel="2321.67" electricity="0.00" noise="67.11" route="!xingminlu_south_T1.12" type="vt_truck" waiting="33.00" lane="-E1_2" pos="174.55" speed="0.00" angle="359.99" x="-399.12" y="-28.60"/>
        <vehicle id="xingminlu_south_T1.13" eclass="HBEFA3/PC_G_EU4" CO2="2624.72" CO="164.78" HC="0.81" NOx="1.20" PMx="0.07" fuel="837.22" electricity="0.00" noise="55.94" route="!xingminlu_south_T1.13" type="vt_car" waiting="16.00" lane="-E1_2" pos="164.95" speed="0.00" angle="359.99" x="-399.12" y="-38.20"/>
        <vehicle id="xingminlu_south_T1.14" eclass="HBEFA3/PC_G_EU4" CO2="2920.17" CO="4.51" HC="0.09" NOx="0.97" PMx="0.03" fuel="931.41" electricity="0.00" noise="65.10" route="!xingminlu_south_T1.14" type="vt_car" waiting="0.00" lane="-E1_1" pos="142.31" speed="14.13" angle="359.99" x="-395.11" y="-60.84"/>
        <vehicle id="xingminlu_south_T1.6" eclass="HBEFA3/PC_G_EU4" CO2="0.00" CO="0.00" HC="0.00" NOx="0.00" PMx="0.00" fuel="0.00" electricity="0.00" noise="62.81" route="!xingminlu_south_T1.6" type="vt_car" waiting="0.00" lane="E8_1" pos="277.87" speed="12.47" angle="90.03" x="699.11" y="-9.28"/>
        <vehicle id="yuanlinlu_east_T1.0" eclass="HBEFA3/PC_G_EU4" CO2="0.00" CO="0.00" HC="0.00" NOx="0.00" PMx="0.00" fuel="0.00" electricity="0.00" noise="61.95" route="!yuanlinlu_east_T1.0" type="vt_car" waiting="0.00" lane="E8_2" pos="310.71" speed="13.26" angle="90.03" x="731.96" y="-5.30"/>
        <vehicle id="yuanlinlu_east_T1.100" eclass="HBEFA3/PC_G_EU4" CO2="2624.72" CO="164.78" HC="0.81" NOx="1.20" PMx="0.07" fuel="837.22" electricity="0.00" noise="55.94" route="!yuanlinlu_east_T1.100" type="vt_car" waiting="0.00" lane="E0_2" pos="5.10" speed="0.00" angle="90.00" x="-774.75" y="-5.09"/>
        <vehicle id="yuanlinlu_east_T1.12" eclass="HBEFA3/PC_G_EU4" CO2="1919.09" CO="0.00" HC="0.02" NOx="0.54" PMx="0.00" fuel="612.12" electricity="0.00" noise="63.35" route="!yuanlinlu_east_T1.12" type="vt_car" waiting="0.00" lane="E8_2" pos="208.48" speed="12.50" angle="90.03" x="629.73" y="-5.24"/>
        <vehicle id="yuanlinlu_east_T1.13" eclass="HBEFA3/PC_G_EU4" CO2="3361.41" CO="21.88" HC="0.18" NOx="1.21" PMx="0.04" fuel="1072.14" electricity="0.00" noise="64.70" route="!yuanlinlu_east_T1.13" type="vt_car" waiting="0.00" lane="E8_2" pos="186.35" speed="12.84" angle="90.03" x="607.60" y="-5.23"/>
        <vehicle id="yuanlinlu_east_T1.14" eclass="HBEFA3/PC_G_EU4" CO2="0.00" CO="0.00" HC="0.00" NOx="0.00" PMx="0.00" fuel="0.00" electricity="0.00" noise="61.48" route="!yuanlinlu_east_T1.14" type="vt_car" waiting="0.00" lane="E8_2" pos="164.77" speed="12.66" angle="90.03" x="586.02" y="-5.22"/>
        <vehicle id="yuanlinlu_east_T1.18" eclass="HBEFA3/PC_G_EU4" CO2="6345.66" CO="77.80" HC="0.51" NOx="2.60" PMx="0.12" fuel="2023.96" electricity="0.00" noise="67.72" route="!yuanlinlu_east_T1.18" type="vt_car" waiting="0.00" lane="E4_1" pos="158.31" speed="13.68" angle="179.98" x="-8.44" y="-178.58"/>
        <vehicle id="yuanlinlu_east_T1.21" eclass="HBEFA3/PC_G_EU4" CO2="3986.19" CO="151.13" HC="0.78" NOx="1.78" PMx="0.09" fuel="1271.45" electricity="0.00" noise="67.93" route="!yuanlinlu_east_T1.21" type="vt_car" waiting="0.00" lane=":J3_18_0" pos="1.51" speed="2.51" angle="90.02" x="-17.98" y="-5.26"/>
        <vehicle id="yuanlinlu_east_T1.22" eclass="HBEFA3/PC_G_EU4" CO2="2624.72" CO="164.78" HC="0.81" NOx="1.20" PMx="0.07" fuel="837.22" electricity="0.00" noise="55.94" route="!yuanlinlu_east_T1.22" type="vt_car" waiting="5.00" lane="E2_2" pos="356.12" speed="0.00" angle="90.03" x="-27.99" y="-5.26"/>
        <vehicle id="yuanlinlu_east_T1.23" eclass="HBEFA3/HDV" CO2="36620.98" CO="47.09" HC="0.00" NOx="304.22" PMx="5.54" fuel="11520.11" electricity="0.00" noise="80.02" route="!yuanlinlu_east_T1.23" type="vt_truck" waiting="0.00" lane=":J3_30_0" pos="5.41" speed="7.82" angle="125.98" x="-10.17" y="-13.80"/>
        <vehicle id="yuanlinlu_east_T1.27" eclass="HBEFA3/PC_G_EU4" CO2="2345.65" CO="153.57" HC="0.75" NOx="1.06" PMx="0.06" fuel="748.21" electricity="0.00" noise="43.10" route="!yuanlinlu_east_T1.27" type="vt_car" waiting="0.00" lane="E2_2" pos="348.54" speed="0.31" angle="90.03" x="-35.57" y="-5.25"/>
        <vehicle id="yuanlinlu_east_T1.28" eclass="HBEFA3/PC_G_EU4" CO2="3530.75" CO="30.52" HC="0.22" NOx="1.31" PMx="0.05" fuel="1126.15" electricity="0.00" noise="64.49" route="!yuanlinlu_east_T1.28" type="vt_car" waiting="0.00" lane="E2_3" pos="300.90" speed="12.13" angle="90.03" x="-83.21" y="-1.23"/>
        <vehicle id="yuanlinlu_east_T1.29" eclass="HBEFA3/HDV" CO2="0.00" CO="0.00" HC="0.00" NOx="0.00" PMx="0.00" fuel="0.00" electricity="0.00" noise="68.36" route="!yuanlinlu_east_T1.29" type="vt_truck" waiting="0.00" lane="E2_2" pos="241.97" speed="8.21" angle="90.03" x="-142.14" y="-5.21"/>
        <vehicle id="yuanlinlu_east_T1.3" eclass="HBEFA3/PC_G_EU4" CO2="0.00" CO="0.00" HC="0.00" NOx="0.00" PMx="0.00" fuel="0.00" electricity="0.00" noise="60.84" route="!yuanlinlu_east_T1.3" type="vt_car" waiting="0.00" lane="E7_2" pos="127.92" speed="9.72" angle="180.00" x="402.25" y="-148.04"/>
        <vehicle id="yuanlinlu_east_T1.31" eclass="HBEFA3/PC_G_EU4" CO2="0.00" CO="0.00" HC="0.00" NOx="0.00" PMx="0.00" fuel="0.00" electricity="0.00" noise="63.91" route="!yuanlinlu_east_T1.31" type="vt_car" waiting="0.00" lane="E4_1" pos="63.94" speed="13.99" angle="179.98" x="-8.46" y="-84.21"/>
        <vehicle id="yuanlinlu_east_T1.32" eclass="HBEFA3/PC_G_EU4" CO2="0.00" CO="0.00" HC="0.00" NOx="0.00" PMx="0.00" fuel="0.00" electricity="0.00" noise="58.23" route="!yuanlinlu_east_T1.32" type="vt_car" waiting="0.00" lane="E2_2" pos="222.89" speed="9.26" angle="90.03" x="-161.22" y="-5.20"/>
        <vehicle id="yuanlinlu_east_T1.33" eclass="HBEFA3/PC_G_EU4" CO2="0.00" CO="0.00" HC="0.00" NOx="0.00" PMx="0.00" fuel="0.00" electricity="0.00" noise="61.11" route="!yuanlinlu_east_T1.33" type="vt_car" waiting="0.00" lane="E2_3" pos="189.48" speed="11.41" angle="90.03" x="-194.63" y="-1.18"/>
        <vehicle id="yuanlinlu_east_T1.35" eclass="HBEFA3/PC_G_EU4" CO2="3804.44" CO="22.53" HC="0.19" NOx="1.39" PMx="0.05" fuel="1213.44" electricity="0.00" noise="65.73" route="!yuanlinlu_east_T1.35" type="vt_car" waiting="0.00" lane="E2_1" pos="256.72" speed="14.16" angle="90.03" x="-127.39" y="-9.21"/>
        <vehicle id="yuanlinlu_east_T1.36" eclass="HBEFA3/HDV" CO2="0.00" CO="0.00" HC="0.00" NOx="0.00" PMx="0.00" fuel="0.00" electricity="0.00" noise="71.35" route="!yuanlinlu_east_T1.36" type="vt_truck" waiting="0.00" lane="E2_2" pos="144.75" speed="9.82" angle="90.03" x="-239.36" y="-5.16"/>
        <vehicle id="yuanlinlu_east_T1.40" eclass="HBEFA3/PC_G_EU4" CO2="3834.32" CO="28.44" HC="0.22" NOx="1.42" PMx="0.05" fuel="1222.97" electricity="0.00" noise="65.33" route="!yuanlinlu_east_T1.40" type="vt_car" waiting="0.00" lane="E2_3" pos="154.09" speed="13.31" angle="90.03" x="-230.02" y="-1.17"/>
        <vehicle id="yuanlinlu_east_T1.41" eclass="HBEFA3/PC_G_EU4" CO2="0.00" CO="0.00" HC="0.00" NOx="0.00" PMx="0.00" fuel="0.00" electricity="0.00" noise="61.29" route="!yuanlinlu_east_T1.41" type="vt_car" waiting="0.00" lane="E2_2" pos="120.09" speed="11.50" angle="90.03" x="-264.02" y="-5.15"/>
        <vehicle id="yuanlinlu_east_T1.42" eclass="HBEFA3/PC_G_EU4" CO2="2624.72" CO="164.78" HC="0.81" NOx="1.20" PMx="0.07" fuel="837.22" electricity="0.00" noise="55.94" route="!yuanlinlu_east_T1.42" type="vt_car" waiting="5.00" lane="E0_2" pos="353.23" speed="0.00" angle="90.00" x="-426.62" y="-5.09"/>
        <vehicle id="yuanlinlu_east_T1.44" eclass="HBEFA3/PC_G_EU4" CO2="0.00" CO="0.00" HC="0.00" NOx="0.00" PMx="0.00" fuel="0.00" electricity="0.00" noise="62.08" route="!yuanlinlu_east_T1.44" type="vt_car" waiting="0.00" lane="E2_3" pos="279.38" speed="11.53" angle="90.03" x="-104.73" y="-1.22"/>
        <vehicle id="yuanlinlu_east_T1.48" eclass="HBEFA3/PC_G_EU4" CO2="2624.45" CO="164.74" HC="0.81" NOx="1.20" PMx="0.07" fuel="837.14" electricity="0.00" noise="55.90" route="!yuanlinlu_east_T1.48" type="vt_car" waiting="3.00" lane="E0_2" pos="345.73" speed="0.00" angle="90.00" x="-434.12" y="-5.09"/>
        <vehicle id="yuanlinlu_east_T1.49" eclass="HBEFA3/PC_G_EU4" CO2="0.00" CO="0.00" HC="0.00" NOx="0.00" PMx="0.00" fuel="0.00" electricity="0.00" noise="55.59" route="!yuanlinlu_east_T1.49" type="vt_car" waiting="0.00" lane="E0_2" pos="322.70" speed="1.19" angle="90.00" x="-457.15" y="-5.09"/>
        <vehicle id="yuanlinlu_east_T1.5" eclass="HBEFA3/PC_G_EU4" CO2="2712.96" CO="49.81" HC="0.29" NOx="1.03" PMx="0.03" fuel="865.33" electricity="0.00" noise="61.48" route="!yuanlinlu_east_T1.5" type="vt_car" waiting="0.00" lane=":J6_19_0" pos="27.75" speed="8.19" angle="10.84" x="405.52" y="15.74"/>
        <vehicle id="yuanlinlu_east_T1.51" eclass="HBEFA3/PC_G_EU4" CO2="0.00" CO="0.00" HC="0.00" NOx="0.00" PMx="0.00" fuel="0.00" electricity="0.00" noise="53.86" route="!yuanlinlu_east_T1.51" type="vt_car" waiting="0.00" lane="E0_2" pos="314.01" speed="1.63" angle="90.00" x="-465.84" y="-5.09"/>
        <vehicle id="yuanlinlu_east_T1.52" eclass="HBEFA3/PC_G_EU4" CO2="0.00" CO="0.00" HC="0.00" NOx="0.00" PMx="0.00" fuel="0.00" electricity="0.00" noise="50.05" route="!yuanlinlu_east_T1.52" type="vt_car" waiting="0.00" lane="E0_2" pos="304.18" speed="2.12" angle="90.00" x="-475.67" y="-5.09"/>
        <vehicle id="yuanlinlu_east_T1.53" eclass="HBEFA3/PC_G_EU4" CO2="2624.72" CO="164.78" HC="0.81" NOx="1.20" PMx="0.07" fuel="837.22" electricity="0.00" noise="55.94" route="!yuanlinlu_east_T1.53" type="vt_car" waiting="8.00" lane="E0_2" pos="360.73" speed="0.00" angle="90.00" x="-419.12" y="-5.09"/>
        <vehicle id="yuanlinlu_east_T1.54" eclass="HBEFA3/PC_G_EU4" CO2="2687.97" CO="84.95" HC="0.45" NOx="1.09" PMx="0.04" fuel="857.37" electricity="0.00" noise="60.04" route="!yuanlinlu_east_T1.54" type="vt_car" waiting="0.00" lane="E0_2" pos="293.50" speed="5.24" angle="90.00" x="-486.35" y="-5.09"/>
        <vehicle id="yuanlinlu_east_T1.55" eclass="HBEFA3/PC_G_EU4" CO2="2429.90" CO="98.98" HC="0.51" NOx="1.01" PMx="0.04" fuel="775.06" electricity="0.00" noise="58.46" route="!yuanlinlu_east_T1.55" type="vt_car" waiting="0.00" lane="E0_2" pos="279.73" speed="3.84" angle="90.00" x="-500.12" y="-5.09"/>
        <vehicle id="yuanlinlu_east_T1.56" eclass="HBEFA3/HDV" CO2="10855.31" CO="18.80" HC="0.00" NOx="108.17" PMx="2.54" fuel="3414.71" electricity="0.00" noise="70.22" route="!yuanlinlu_east_T1.56" type="vt_truck" waiting="0.00" lane="E0_2" pos="267.87" speed="3.32" angle="90.00" x="-511.98" y="-5.09"/>
        <vehicle id="yuanlinlu_east_T1.59" eclass="HBEFA3/PC_G_EU4" CO2="0.00" CO="0.00" HC="0.00" NOx="0.00" PMx="0.00" fuel="0.00" electricity="0.00" noise="55.20" route="!yuanlinlu_east_T1.59" type="vt_car" waiting="0.00" lane="E0_2" pos="253.76" speed="2.08" angle="90.00" x="-526.09" y="-5.09"/>
        <vehicle id="yuanlinlu_east_T1.63" eclass="HBEFA3/PC_G_EU4" CO2="2849.17" CO="110.31" HC="0.57" NOx="1.21" PMx="0.05" fuel="908.79" electricity="0.00" noise="60.21" route="!yuanlinlu_east_T1.63" type="vt_car" waiting="0.00" lane="E0_2" pos="244.16" speed="3.66" angle="90.00" x="-535.69" y="-5.09"/>
        <vehicle id="yuanlinlu_east_T1.67" eclass="HBEFA3/PC_G_EU4" CO2="4361.96" CO="32.90" HC="0.25" NOx="1.65" PMx="0.06" fuel="1391.26" electricity="0.00" noise="66.24" route="!yuanlinlu_east_T1.67" type="vt_car" waiting="0.00" lane="E2_1" pos="113.65" speed="14.36" angle="90.03" x="-270.46" y="-9.15"/>
        <vehicle id="yuanlinlu_east_T1.70" eclass="HBEFA3/PC_G_EU4" CO2="0.00" CO="0.00" HC="0.00" NOx="0.00" PMx="0.00" fuel="0.00" electricity="0.00" noise="56.59" route="!yuanlinlu_east_T1.70" type="vt_car" waiting="0.00" lane="E0_2" pos="231.99" speed="3.84" angle="90.00" x="-547.86" y="-5.09"/>
        <vehicle id="yuanlinlu_east_T1.71" eclass="HBEFA3/PC_G_EU4" CO2="2624.72" CO="164.78" HC="0.81" NOx="1.20" PMx="0.07" fuel="837.22" electricity="0.00" noise="55.94" route="!yuanlinlu_east_T1.71" type="vt_car" waiting="4.00" lane="E0_1" pos="348.35" speed="0.00" angle="90.00" x="-431.50" y="-9.09"/>
        <vehicle id="yuanlinlu_east_T1.73" eclass="HBEFA3/PC_G_EU4" CO2="0.00" CO="0.00" HC="0.00" NOx="0.00" PMx="0.00" fuel="0.00" electricity="0.00" noise="56.76" route="!yuanlinlu_east_T1.73" type="vt_car" waiting="0.00" lane="E0_2" pos="218.87" speed="3.96" angle="90.00" x="-560.98" y="-5.09"/>
        <vehicle id="yuanlinlu_east_T1.75" eclass="HBEFA3/PC_G_EU4" CO2="2611.62" CO="78.09" HC="0.41" NOx="1.04" PMx="0.04" fuel="833.02" electricity="0.00" noise="59.99" route="!yuanlinlu_east_T1.75" type="vt_car" waiting="0.00" lane="E0_2" pos="206.18" speed="5.64" angle="90.00" x="-573.67" y="-5.09"/>
        <vehicle id="yuanlinlu_east_T1.77" eclass="HBEFA3/PC_G_EU4" CO2="2620.73" CO="164.18" HC="0.81" NOx="1.20" PMx="0.07" fuel="835.95" electricity="0.00" noise="55.82" route="!yuanlinlu_east_T1.77" type="vt_car" waiting="2.00" lane="E0_2" pos="338.21" speed="0.03" angle="90.00" x="-441.64" y="-5.09"/>
        <vehicle id="yuanlinlu_east_T1.79" eclass="HBEFA3/PC_G_EU4" CO2="0.00" CO="0.00" HC="0.00" NOx="0.00" PMx="0.00" fuel="0.00" electricity="0.00" noise="48.16" route="!yuanlinlu_east_T1.79" type="vt_car" waiting="0.00" lane="E0_2" pos="191.27" speed="4.71" angle="90.00" x="-588.58" y="-5.09"/>
        <vehicle id="yuanlinlu_east_T1.8" eclass="HBEFA3/PC_G_EU4" CO2="0.00" CO="0.00" HC="0.00" NOx="0.00" PMx="0.00" fuel="0.00" electricity="0.00" noise="63.48" route="!yuanlinlu_east_T1.8" type="vt_car" waiting="0.00" lane="E8_2" pos="259.12" speed="13.81" angle="90.03" x="680.37" y="-5.27"/>
        <vehicle id="yuanlinlu_east_T1.80" eclass="HBEFA3/PC_G_EU4" CO2="2350.09" CO="33.35" HC="0.20" NOx="0.83" PMx="0.02" fuel="749.59" electricity="0.00" noise="61.44" route="!yuanlinlu_east_T1.80" type="vt_car" waiting="0.00" lane="E0_2" pos="176.93" speed="9.05" angle="90.00" x="-602.92" y="-5.09"/>
        <vehicle id="yuanlinlu_east_T1.81" eclass="HBEFA3/PC_G_EU4" CO2="2554.19" CO="159.03" HC="0.78" NOx="1.16" PMx="0.06" fuel="814.72" electricity="0.00" noise="53.32" route="!yuanlinlu_east_T1.81" type="vt_car" waiting="0.00" lane="E0_2" pos="330.51" speed="0.24" angle="90.00" x="-449.34" y="-5.09"/>
        <vehicle id="yuanlinlu_east_T1.84" eclass="HBEFA3/PC_G_EU4" CO2="4687.21" CO="85.96" HC="0.50" NOx="1.95" PMx="0.08" fuel="1495.01" electricity="0.00" noise="64.98" route="!yuanlinlu_east_T1.84" type="vt_car" waiting="0.00" lane="E0_2" pos="158.47" speed="8.62" angle="90.00" x="-621.38" y="-5.09"/>