<?xml version="1.0" encoding="UTF-8"?>

<!-- generated on 2024-11-05 11:58:09 by Eclipse SUMO sumo Version 1.20.0
<configuration xmlns:xsi="http://www.w3.org/2001/XMLSchema-instance" xsi:noNamespaceSchemaLocation="http://sumo.dlr.de/xsd/sumoConfiguration.xsd">

    <input>
        <net-file value="sumo_network/example42.net.xml"/>
        <route-files value="sumo_network/example42.rou.xml,sumo_network/bus.rou.xml,sumo_network/pedestrian.rou.xml"/>
        <additional-files value="sumo_network/busstops_def.add.xml,sumo_network/det_e3.add.xml,sumo_network/det_e2.add.xml,sumo_network/edgelane_dump.add.xml,sumo_network/signal-timing-dial.xml"/>
    </input>

    <output>
        <write-license value="false"/>
        <output-prefix value="OUTPUT-"/>
        <precision value="2"/>
        <human-readable-time value="false"/>
        <emission-output value="sumo_network/output/data_emission.xml"/>
        <emission-output.precision value="2"/>
        <queue-output value="sumo_network/output/data_Queue.xml"/>
        <queue-output.period value="300"/>
        <summary-output value="sumo_network/output/data_summary.xml"/>
        <summary-output.period value="300"/>
        <person-summary-output value="sumo_network/output/data_person_summary.xml"/>
        <personinfo-output value="sumo_network/output/data_personinfo.xml"/>
        <collision-output value="sumo_network/output/data_collision.xml"/>
        <edgedata-output value="sumo_network/output/data_edges.xml"/>
        <lanedata-output value="sumo_network/output/data_lanes.xml"/>
        <statistic-output value="sumo_network/output/data_statistic.xml"/>
    </output>

    <time>
        <begin value="0"/>
        <end value="3600"/>
        <step-length value="1"/>
    </time>

    <processing>
        <no-internal-links value="false"/>
        <ignore-route-errors value="true"/>
        <collision.action value="teleport"/>
        <intermodal-collision.action value="warn"/>
        <collision.stoptime value="0"/>
        <intermodal-collision.stoptime value="0"/>
        <collision.check-junctions value="false"/>
        <max-num-vehicles value="-1"/>
        <max-num-teleports value="-1"/>
        <time-to-teleport value="300"/>
        <time-to-teleport.remove value="false"/>
        <waiting-time-memory value="100"/>
        <max-depart-delay value="-1"/>
        <random-depart-offset value="0"/>
        <lanechange.duration value="0"/>
        <lanechange.overtake-right value="false"/>
        <tls.all-off value="false"/>
        <tls.yellow.min-decel value="3"/>
    </processing>

    <routing>
        <routing-algorithm value="dijkstra"/>
    </routing>

    <report>
        <verbose value="true"/>
        <no-warnings value="true"/>
        <log value="sumo_network/output/data_log.xml"/>
        <no-step-log value="true"/>
        <step-log.period value="300"/>
    </report>

    <emissions>
        <device.emissions.period value="300"/>
    </emissions>

    <traci_server>
        <remote-port value="8813"/>
    </traci_server>

    <mesoscopic>
        <mesosim value="false"/>
    </mesoscopic>

    <random_number>
        <random value="false"/>
        <seed value="23423"/>
    </random_number>

    <gui_only>
        <gui-settings-file value="sumo_network/viewsettings.xml"/>
        <start value="true"/>
        <demo value="false"/>
        <window-size value="800,600"/>
        <window-pos value="100,100"/>
    </gui_only>

</configuration>
-->

<queue-export xmlns:xsi="http://www.w3.org/2001/XMLSchema-instance" xsi:noNamespaceSchemaLocation="http://sumo.dlr.de/xsd/queue_file.xsd">
    <data timestep="0.00">
        <lanes/>
    </data>
    <data timestep="300.00">
        <lanes>
            <lane id="-E1_2" queueing_time="47.00" queueing_length="23.10" queueing_length_experimental="23.10"/>
            <lane id="-E3_2" queueing_time="51.00" queueing_length="13.16" queueing_length_experimental="13.16"/>
            <lane id="-E5_2" queueing_time="27.00" queueing_length="6.00" queueing_length_experimental="13.66"/>
            <lane id="-E8_2" queueing_time="3.00" queueing_length="15.62" queueing_length_experimental="216.29"/>
            <lane id="-E9_2" queueing_time="20.00" queueing_length="13.51" queueing_length_experimental="13.51"/>
            <lane id="E0_1" queueing_time="4.00" queueing_length="25.89" queueing_length_experimental="25.89"/>
            <lane id="E0_2" queueing_time="8.00" queueing_length="28.52" queueing_length_experimental="44.03"/>
            <lane id="E2_2" queueing_time="5.00" queueing_length="13.50" queueing_length_experimental="21.08"/>
        </lanes>
    </data>
    <data timestep="600.00">
        <lanes>
            <lane id="-E1_2" queueing_time="8.00" queueing_length="6.00" queueing_length_experimental="6.00"/>
            <lane id="-E2_2" queueing_time="11.00" queueing_length="13.50" queueing_length_experimental="13.50"/>
            <lane id="-E2_3" queueing_time="10.00" queueing_length="13.50" queueing_length_experimental="13.50"/>
            <lane id="-E3_2" queueing_time="12.00" queueing_length="28.50" queueing_length_experimental="28.50"/>
            <lane id="-E5_2" queueing_time="28.00" queueing_length="115.22" queueing_length_experimental="115.22"/>
            <lane id="-E5_3" queueing_time="2.00" queueing_length="8.10" queueing_length_experimental="8.10"/>
            <lane id="-E8_2" queueing_time="40.00" queueing_length="195.82" queueing_length_experimental="223.26"/>
            <lane id="E0_2" queueing_time="32.00" queueing_length="261.99" queueing_length_experimental="269.56"/>
            <lane id="E2_2" queueing_time="45.00" queueing_length="98.11" queueing_length_experimental="98.11"/>
            <lane id="E2_3" queueing_time="38.00" queueing_length="21.00" queueing_length_experimental="21.00"/>
            <lane id="E5_2" queueing_time="36.00" queueing_length="73.51" queueing_length_experimental="73.51"/>
        </lanes>
    </data>
</queue-export>
